
     Program PWSCF v.7.5 starts on  6Mar2026 at  2:55:32 

     This program is part of the open-source Quantum ESPRESSO suite
     for quantum simulation of materials; please cite
         "P. Giannozzi et al., J. Phys.:Condens. Matter 21 395502 (2009);
         "P. Giannozzi et al., J. Phys.:Condens. Matter 29 465901 (2017);
         "P. Giannozzi et al., J. Chem. Phys. 152 154105 (2020);
          URL http://www.quantum-espresso.org", 
     in publications or presentations arising from this work. More details at
     http://www.quantum-espresso.org/quote

     Parallel version (MPI & OpenMP), running on       2 processor cores
     Number of MPI processes:                 2
     Threads/MPI process:                     1

     MPI processes distributed on     1 nodes
     4747 MiB available memory on the printing compute node when the environment starts

     Reading input from pw.in
Warning: card &CELL ignored

     Current dimensions of program PWSCF are:
     Max number of different atomic species (ntypx) = 10
     Max number of k-points (npk) =  40000
     Max angular momentum in pseudopotentials (lmaxx) =  4
     file Cu.pbe-dn-kjpaw_psl.1.0.0.UPF: wavefunction(s)  4S 3D renormalized

     R & G space division:  proc/nbgrp/npool/nimage =       2
     Subspace diagonalization in iterative solution of the eigenvalue problem:
     a serial algorithm will be used


     Parallelization info
     --------------------
     sticks:   dense  smooth     PW     G-vecs:    dense   smooth      PW
     Min         219     111     42                 3115     1114     264
     Max         220     112     43                 3116     1115     267
     Sum         439     223     85                 6231     2229     531

     Using Slab Decomposition



     bravais-lattice index     =            2
     lattice parameter (alat)  =       6.8314  a.u.
     unit-cell volume          =      79.7007 (a.u.)^3
     number of atoms/cell      =            1
     number of atomic types    =            1
     number of electrons       =        11.00
     number of Kohn-Sham states=           10
     kinetic-energy cutoff     =      35.0000  Ry
     charge density cutoff     =     280.0000  Ry
     scf convergence threshold =      1.0E-08
     mixing beta               =       0.7000
     number of iterations used =            8  plain     mixing
     Exchange-correlation= SLA  PW   PBX  PBC
                           (   1   4   3   4   0   0   0)

     celldm(1)=   6.831363  celldm(2)=   0.000000  celldm(3)=   0.000000
     celldm(4)=   0.000000  celldm(5)=   0.000000  celldm(6)=   0.000000

     crystal axes: (cart. coord. in units of alat)
               a(1) = (  -0.500000   0.000000   0.500000 )  
               a(2) = (   0.000000   0.500000   0.500000 )  
               a(3) = (  -0.500000   0.500000   0.000000 )  

     reciprocal axes: (cart. coord. in units 2 pi/alat)
               b(1) = ( -1.000000 -1.000000  1.000000 )  
               b(2) = (  1.000000  1.000000  1.000000 )  
               b(3) = ( -1.000000  1.000000 -1.000000 )  


     PseudoPot. # 1 for Cu read from file:
     ./Cu.pbe-dn-kjpaw_psl.1.0.0.UPF
     MD5 check sum: cfffd1f38ee05704b3e17f46f1730a6f
     Pseudo is Projector augmented-wave + core cor, Zval = 11.0
     Generated using &quot;atomic&quot; code by A. Dal Corso  v.6.3
     Shape of augmentation charge: PSQ
     Using radial grid of 1199 points,  6 beta functions with: 
                l(1) =   0
                l(2) =   0
                l(3) =   1
                l(4) =   1
                l(5) =   2
                l(6) =   2
     Q(r) pseudized with 0 coefficients 


     atomic species   valence    mass     pseudopotential
     Cu               11.00    63.54600     Cu( 1.00)

     48 Sym. Ops., with inversion, found


                                    s                        frac. trans.

      isym =  1     identity                                     

 cryst.   s( 1) = (     1          0          0      )
                  (     0          1          0      )
                  (     0          0          1      )

 cart.    s( 1) = (  1.0000000  0.0000000  0.0000000 )
                  (  0.0000000  1.0000000  0.0000000 )
                  (  0.0000000  0.0000000  1.0000000 )


      isym =  2     180 deg rotation - cart. axis [0,0,1]        

 cryst.   s( 2) = (     0          1         -1      )
                  (     1          0         -1      )
                  (     0          0         -1      )

 cart.    s( 2) = ( -1.0000000  0.0000000  0.0000000 )
                  (  0.0000000 -1.0000000  0.0000000 )
                  (  0.0000000  0.0000000  1.0000000 )


      isym =  3     180 deg rotation - cart. axis [0,1,0]        

 cryst.   s( 3) = (    -1          0          0      )
                  (    -1          0          1      )
                  (    -1          1          0      )

 cart.    s( 3) = ( -1.0000000  0.0000000  0.0000000 )
                  (  0.0000000  1.0000000  0.0000000 )
                  (  0.0000000  0.0000000 -1.0000000 )


      isym =  4     180 deg rotation - cart. axis [1,0,0]        

 cryst.   s( 4) = (     0         -1          1      )
                  (     0         -1          0      )
                  (     1         -1          0      )

 cart.    s( 4) = (  1.0000000  0.0000000  0.0000000 )
                  (  0.0000000 -1.0000000  0.0000000 )
                  (  0.0000000  0.0000000 -1.0000000 )


      isym =  5     180 deg rotation - cart. axis [1,1,0]        

 cryst.   s( 5) = (     0         -1          0      )
                  (    -1          0          0      )
                  (     0          0         -1      )

 cart.    s( 5) = (  0.0000000  1.0000000  0.0000000 )
                  (  1.0000000  0.0000000  0.0000000 )
                  (  0.0000000  0.0000000 -1.0000000 )


      isym =  6     180 deg rotation - cart. axis [1,-1,0]       

 cryst.   s( 6) = (    -1          0          1      )
                  (     0         -1          1      )
                  (     0          0          1      )

 cart.    s( 6) = (  0.0000000 -1.0000000  0.0000000 )
                  ( -1.0000000  0.0000000  0.0000000 )
                  (  0.0000000  0.0000000 -1.0000000 )


      isym =  7      90 deg rotation - cart. axis [0,0,-1]       

 cryst.   s( 7) = (     0          1          0      )
                  (     0          1         -1      )
                  (    -1          1          0      )

 cart.    s( 7) = (  0.0000000  1.0000000  0.0000000 )
                  ( -1.0000000  0.0000000  0.0000000 )
                  (  0.0000000  0.0000000  1.0000000 )


      isym =  8      90 deg rotation - cart. axis [0,0,1]        

 cryst.   s( 8) = (     1          0         -1      )
                  (     1          0          0      )
                  (     1         -1          0      )

 cart.    s( 8) = (  0.0000000 -1.0000000  0.0000000 )
                  (  1.0000000  0.0000000  0.0000000 )
                  (  0.0000000  0.0000000  1.0000000 )


      isym =  9     180 deg rotation - cart. axis [1,0,1]        

 cryst.   s( 9) = (    -1          0          0      )
                  (     0          0         -1      )
                  (     0         -1          0      )

 cart.    s( 9) = (  0.0000000  0.0000000  1.0000000 )
                  (  0.0000000 -1.0000000  0.0000000 )
                  (  1.0000000  0.0000000  0.0000000 )


      isym = 10     180 deg rotation - cart. axis [-1,0,1]       

 cryst.   s(10) = (     1          0          0      )
                  (     1         -1          0      )
                  (     1          0         -1      )

 cart.    s(10) = (  0.0000000  0.0000000 -1.0000000 )
                  (  0.0000000 -1.0000000  0.0000000 )
                  ( -1.0000000  0.0000000  0.0000000 )


      isym = 11      90 deg rotation - cart. axis [0,1,0]        

 cryst.   s(11) = (     0          1         -1      )
                  (    -1          1          0      )
                  (     0          1          0      )

 cart.    s(11) = (  0.0000000  0.0000000  1.0000000 )
                  (  0.0000000  1.0000000  0.0000000 )
                  ( -1.0000000  0.0000000  0.0000000 )


      isym = 12      90 deg rotation - cart. axis [0,-1,0]       

 cryst.   s(12) = (     0         -1          1      )
                  (     0          0          1      )
                  (    -1          0          1      )

 cart.    s(12) = (  0.0000000  0.0000000 -1.0000000 )
                  (  0.0000000  1.0000000  0.0000000 )
                  (  1.0000000  0.0000000  0.0000000 )


      isym = 13     180 deg rotation - cart. axis [0,1,1]        

 cryst.   s(13) = (    -1          1          0      )
                  (     0          1          0      )
                  (     0          1         -1      )

 cart.    s(13) = ( -1.0000000  0.0000000  0.0000000 )
                  (  0.0000000  0.0000000  1.0000000 )
                  (  0.0000000  1.0000000  0.0000000 )


      isym = 14     180 deg rotation - cart. axis [0,1,-1]       

 cryst.   s(14) = (     0          0         -1      )
                  (     0         -1          0      )
                  (    -1          0          0      )

 cart.    s(14) = ( -1.0000000  0.0000000  0.0000000 )
                  (  0.0000000  0.0000000 -1.0000000 )
                  (  0.0000000 -1.0000000  0.0000000 )


      isym = 15      90 deg rotation - cart. axis [-1,0,0]       

 cryst.   s(15) = (     0          0          1      )
                  (    -1          0          1      )
                  (     0         -1          1      )

 cart.    s(15) = (  1.0000000  0.0000000  0.0000000 )
                  (  0.0000000  0.0000000  1.0000000 )
                  (  0.0000000 -1.0000000  0.0000000 )


      isym = 16      90 deg rotation - cart. axis [1,0,0]        

 cryst.   s(16) = (     1         -1          0      )
                  (     1          0         -1      )
                  (     1          0          0      )

 cart.    s(16) = (  1.0000000  0.0000000  0.0000000 )
                  (  0.0000000  0.0000000 -1.0000000 )
                  (  0.0000000  1.0000000  0.0000000 )


      isym = 17     120 deg rotation - cart. axis [-1,-1,-1]     

 cryst.   s(17) = (    -1          0          1      )
                  (    -1          1          0      )
                  (    -1          0          0      )

 cart.    s(17) = (  0.0000000  1.0000000  0.0000000 )
                  (  0.0000000  0.0000000  1.0000000 )
                  (  1.0000000  0.0000000  0.0000000 )


      isym = 18     120 deg rotation - cart. axis [-1,1,1]       

 cryst.   s(18) = (     0          1          0      )
                  (     0          0          1      )
                  (     1          0          0      )

 cart.    s(18) = (  0.0000000 -1.0000000  0.0000000 )
                  (  0.0000000  0.0000000  1.0000000 )
                  ( -1.0000000  0.0000000  0.0000000 )


      isym = 19     120 deg rotation - cart. axis [1,1,-1]       

 cryst.   s(19) = (     1          0         -1      )
                  (     0          0         -1      )
                  (     0          1         -1      )

 cart.    s(19) = (  0.0000000  1.0000000  0.0000000 )
                  (  0.0000000  0.0000000 -1.0000000 )
                  ( -1.0000000  0.0000000  0.0000000 )


      isym = 20     120 deg rotation - cart. axis [1,-1,1]       

 cryst.   s(20) = (     0         -1          0      )
                  (     1         -1          0      )
                  (     0         -1          1      )

 cart.    s(20) = (  0.0000000 -1.0000000  0.0000000 )
                  (  0.0000000  0.0000000 -1.0000000 )
                  (  1.0000000  0.0000000  0.0000000 )


      isym = 21     120 deg rotation - cart. axis [1,1,1]        

 cryst.   s(21) = (     0          0         -1      )
                  (     0          1         -1      )
                  (     1          0         -1      )

 cart.    s(21) = (  0.0000000  0.0000000  1.0000000 )
                  (  1.0000000  0.0000000  0.0000000 )
                  (  0.0000000  1.0000000  0.0000000 )


      isym = 22     120 deg rotation - cart. axis [-1,1,-1]      

 cryst.   s(22) = (    -1          1          0      )
                  (    -1          0          0      )
                  (    -1          0          1      )

 cart.    s(22) = (  0.0000000  0.0000000  1.0000000 )
                  ( -1.0000000  0.0000000  0.0000000 )
                  (  0.0000000 -1.0000000  0.0000000 )


      isym = 23     120 deg rotation - cart. axis [1,-1,-1]      

 cryst.   s(23) = (     0          0          1      )
                  (     1          0          0      )
                  (     0          1          0      )

 cart.    s(23) = (  0.0000000  0.0000000 -1.0000000 )
                  ( -1.0000000  0.0000000  0.0000000 )
                  (  0.0000000  1.0000000  0.0000000 )


      isym = 24     120 deg rotation - cart. axis [-1,-1,1]      

 cryst.   s(24) = (     1         -1          0      )
                  (     0         -1          1      )
                  (     0         -1          0      )

 cart.    s(24) = (  0.0000000  0.0000000 -1.0000000 )
                  (  1.0000000  0.0000000  0.0000000 )
                  (  0.0000000 -1.0000000  0.0000000 )


      isym = 25     inversion                                    

 cryst.   s(25) = (    -1          0          0      )
                  (     0         -1          0      )
                  (     0          0         -1      )

 cart.    s(25) = ( -1.0000000  0.0000000  0.0000000 )
                  (  0.0000000 -1.0000000  0.0000000 )
                  (  0.0000000  0.0000000 -1.0000000 )


      isym = 26     inv. 180 deg rotation - cart. axis [0,0,1]   

 cryst.   s(26) = (     0         -1          1      )
                  (    -1          0          1      )
                  (     0          0          1      )

 cart.    s(26) = (  1.0000000  0.0000000  0.0000000 )
                  (  0.0000000  1.0000000  0.0000000 )
                  (  0.0000000  0.0000000 -1.0000000 )


      isym = 27     inv. 180 deg rotation - cart. axis [0,1,0]   

 cryst.   s(27) = (     1          0          0      )
                  (     1          0         -1      )
                  (     1         -1          0      )

 cart.    s(27) = (  1.0000000  0.0000000  0.0000000 )
                  (  0.0000000 -1.0000000  0.0000000 )
                  (  0.0000000  0.0000000  1.0000000 )


      isym = 28     inv. 180 deg rotation - cart. axis [1,0,0]   

 cryst.   s(28) = (     0          1         -1      )
                  (     0          1          0      )
                  (    -1          1          0      )

 cart.    s(28) = ( -1.0000000  0.0000000  0.0000000 )
                  (  0.0000000  1.0000000  0.0000000 )
                  (  0.0000000  0.0000000  1.0000000 )


      isym = 29     inv. 180 deg rotation - cart. axis [1,1,0]   

 cryst.   s(29) = (     0          1          0      )
                  (     1          0          0      )
                  (     0          0          1      )

 cart.    s(29) = (  0.0000000 -1.0000000  0.0000000 )
                  ( -1.0000000  0.0000000  0.0000000 )
                  (  0.0000000  0.0000000  1.0000000 )


      isym = 30     inv. 180 deg rotation - cart. axis [1,-1,0]  

 cryst.   s(30) = (     1          0         -1      )
                  (     0          1         -1      )
                  (     0          0         -1      )

 cart.    s(30) = (  0.0000000  1.0000000  0.0000000 )
                  (  1.0000000  0.0000000  0.0000000 )
                  (  0.0000000  0.0000000  1.0000000 )


      isym = 31     inv.  90 deg rotation - cart. axis [0,0,-1]  

 cryst.   s(31) = (     0         -1          0      )
                  (     0         -1          1      )
                  (     1         -1          0      )

 cart.    s(31) = (  0.0000000 -1.0000000  0.0000000 )
                  (  1.0000000  0.0000000  0.0000000 )
                  (  0.0000000  0.0000000 -1.0000000 )


      isym = 32     inv.  90 deg rotation - cart. axis [0,0,1]   

 cryst.   s(32) = (    -1          0          1      )
                  (    -1          0          0      )
                  (    -1          1          0      )

 cart.    s(32) = (  0.0000000  1.0000000  0.0000000 )
                  ( -1.0000000  0.0000000  0.0000000 )
                  (  0.0000000  0.0000000 -1.0000000 )


      isym = 33     inv. 180 deg rotation - cart. axis [1,0,1]   

 cryst.   s(33) = (     1          0          0      )
                  (     0          0          1      )
                  (     0          1          0      )

 cart.    s(33) = (  0.0000000  0.0000000 -1.0000000 )
                  (  0.0000000  1.0000000  0.0000000 )
                  ( -1.0000000  0.0000000  0.0000000 )


      isym = 34     inv. 180 deg rotation - cart. axis [-1,0,1]  

 cryst.   s(34) = (    -1          0          0      )
                  (    -1          1          0      )
                  (    -1          0          1      )

 cart.    s(34) = (  0.0000000  0.0000000  1.0000000 )
                  (  0.0000000  1.0000000  0.0000000 )
                  (  1.0000000  0.0000000  0.0000000 )


      isym = 35     inv.  90 deg rotation - cart. axis [0,1,0]   

 cryst.   s(35) = (     0         -1          1      )
                  (     1         -1          0      )
                  (     0         -1          0      )

 cart.    s(35) = (  0.0000000  0.0000000 -1.0000000 )
                  (  0.0000000 -1.0000000  0.0000000 )
                  (  1.0000000  0.0000000  0.0000000 )


      isym = 36     inv.  90 deg rotation - cart. axis [0,-1,0]  

 cryst.   s(36) = (     0          1         -1      )
                  (     0          0         -1      )
                  (     1          0         -1      )

 cart.    s(36) = (  0.0000000  0.0000000  1.0000000 )
                  (  0.0000000 -1.0000000  0.0000000 )
                  ( -1.0000000  0.0000000  0.0000000 )


      isym = 37     inv. 180 deg rotation - cart. axis [0,1,1]   

 cryst.   s(37) = (     1         -1          0      )
                  (     0         -1          0      )
                  (     0         -1          1      )

 cart.    s(37) = (  1.0000000  0.0000000  0.0000000 )
                  (  0.0000000  0.0000000 -1.0000000 )
                  (  0.0000000 -1.0000000  0.0000000 )


      isym = 38     inv. 180 deg rotation - cart. axis [0,1,-1]  

 cryst.   s(38) = (     0          0          1      )
                  (     0          1          0      )
                  (     1          0          0      )

 cart.    s(38) = (  1.0000000  0.0000000  0.0000000 )
                  (  0.0000000  0.0000000  1.0000000 )
                  (  0.0000000  1.0000000  0.0000000 )


      isym = 39     inv.  90 deg rotation - cart. axis [-1,0,0]  

 cryst.   s(39) = (     0          0         -1      )
                  (     1          0         -1      )
                  (     0          1         -1      )

 cart.    s(39) = ( -1.0000000  0.0000000  0.0000000 )
                  (  0.0000000  0.0000000 -1.0000000 )
                  (  0.0000000  1.0000000  0.0000000 )


      isym = 40     inv.  90 deg rotation - cart. axis [1,0,0]   

 cryst.   s(40) = (    -1          1          0      )
                  (    -1          0          1      )
                  (    -1          0          0      )

 cart.    s(40) = ( -1.0000000  0.0000000  0.0000000 )
                  (  0.0000000  0.0000000  1.0000000 )
                  (  0.0000000 -1.0000000  0.0000000 )


      isym = 41     inv. 120 deg rotation - cart. axis [-1,-1,-1]

 cryst.   s(41) = (     1          0         -1      )
                  (     1         -1          0      )
                  (     1          0          0      )

 cart.    s(41) = (  0.0000000 -1.0000000  0.0000000 )
                  (  0.0000000  0.0000000 -1.0000000 )
                  ( -1.0000000  0.0000000  0.0000000 )


      isym = 42     inv. 120 deg rotation - cart. axis [-1,1,1]  

 cryst.   s(42) = (     0         -1          0      )
                  (     0          0         -1      )
                  (    -1          0          0      )

 cart.    s(42) = (  0.0000000  1.0000000  0.0000000 )
                  (  0.0000000  0.0000000 -1.0000000 )
                  (  1.0000000  0.0000000  0.0000000 )


      isym = 43     inv. 120 deg rotation - cart. axis [1,1,-1]  

 cryst.   s(43) = (    -1          0          1      )
                  (     0          0          1      )
                  (     0         -1          1      )

 cart.    s(43) = (  0.0000000 -1.0000000  0.0000000 )
                  (  0.0000000  0.0000000  1.0000000 )
                  (  1.0000000  0.0000000  0.0000000 )


      isym = 44     inv. 120 deg rotation - cart. axis [1,-1,1]  

 cryst.   s(44) = (     0          1          0      )
                  (    -1          1          0      )
                  (     0          1         -1      )

 cart.    s(44) = (  0.0000000  1.0000000  0.0000000 )
                  (  0.0000000  0.0000000  1.0000000 )
                  ( -1.0000000  0.0000000  0.0000000 )


      isym = 45     inv. 120 deg rotation - cart. axis [1,1,1]   

 cryst.   s(45) = (     0          0          1      )
                  (     0         -1          1      )
                  (    -1          0          1      )

 cart.    s(45) = (  0.0000000  0.0000000 -1.0000000 )
                  ( -1.0000000  0.0000000  0.0000000 )
                  (  0.0000000 -1.0000000  0.0000000 )


      isym = 46     inv. 120 deg rotation - cart. axis [-1,1,-1] 

 cryst.   s(46) = (     1         -1          0      )
                  (     1          0          0      )
                  (     1          0         -1      )

 cart.    s(46) = (  0.0000000  0.0000000 -1.0000000 )
                  (  1.0000000  0.0000000  0.0000000 )
                  (  0.0000000  1.0000000  0.0000000 )


      isym = 47     inv. 120 deg rotation - cart. axis [1,-1,-1] 

 cryst.   s(47) = (     0          0         -1      )
                  (    -1          0          0      )
                  (     0         -1          0      )

 cart.    s(47) = (  0.0000000  0.0000000  1.0000000 )
                  (  1.0000000  0.0000000  0.0000000 )
                  (  0.0000000 -1.0000000  0.0000000 )


      isym = 48     inv. 120 deg rotation - cart. axis [-1,-1,1] 

 cryst.   s(48) = (    -1          1          0      )
                  (     0          1         -1      )
                  (     0          1          0      )

 cart.    s(48) = (  0.0000000  0.0000000  1.0000000 )
                  ( -1.0000000  0.0000000  0.0000000 )
                  (  0.0000000  1.0000000  0.0000000 )


     point group O_h (m-3m) 
     there are 10 classes
     the character table:

       E     8C3   3C2   6C4   6C2'  i     8S6   3s_h  6S4   6s_d 
A_1g   1.00  1.00  1.00  1.00  1.00  1.00  1.00  1.00  1.00  1.00
A_2g   1.00  1.00  1.00 -1.00 -1.00  1.00  1.00  1.00 -1.00 -1.00
E_g    2.00 -1.00  2.00  0.00  0.00  2.00 -1.00  2.00  0.00  0.00
T_1g   3.00  0.00 -1.00  1.00 -1.00  3.00  0.00 -1.00  1.00 -1.00
T_2g   3.00  0.00 -1.00 -1.00  1.00  3.00  0.00 -1.00 -1.00  1.00
A_1u   1.00  1.00  1.00  1.00  1.00 -1.00 -1.00 -1.00 -1.00 -1.00
A_2u   1.00  1.00  1.00 -1.00 -1.00 -1.00 -1.00 -1.00  1.00  1.00
E_u    2.00 -1.00  2.00  0.00  0.00 -2.00  1.00 -2.00  0.00  0.00
T_1u   3.00  0.00 -1.00  1.00 -1.00 -3.00  0.00  1.00 -1.00  1.00
T_2u   3.00  0.00 -1.00 -1.00  1.00 -3.00  0.00  1.00  1.00 -1.00

     the symmetry operations in each class and the name of the first element:

     E        1
          identity                                               
     8C3     17   19   20   18   24   21   22   23
          120 deg rotation - cart. axis [-1,-1,-1]               
     3C2      2    4    3
          180 deg rotation - cart. axis [0,0,1]                  
     6C4      7    8   15   16   12   11
           90 deg rotation - cart. axis [0,0,-1]                 
     6C2'     5    6   14   13   10    9
          180 deg rotation - cart. axis [1,1,0]                  
     i       25
          inversion                                              
     8S6     41   43   44   42   48   45   46   47
          inv. 120 deg rotation - cart. axis [-1,-1,-1]          
     3s_h    26   28   27
          inv. 180 deg rotation - cart. axis [0,0,1]             
     6S4     31   32   39   40   36   35
          inv.  90 deg rotation - cart. axis [0,0,-1]            
     6s_d    29   30   38   37   34   33
          inv. 180 deg rotation - cart. axis [1,1,0]             

   Cartesian axes

     site n.     atom                  positions (alat units)
         1        Cu     tau(   1) = (   0.0000000   0.0000000   0.0000000  )

   Crystallographic axes

     site n.     atom                  positions (cryst. coord.)
         1        Cu     tau(   1) = (  0.0000000  0.0000000  0.0000000  )

     number of k points=   104  Marzari-Vanderbilt smearing, width (Ry)=  0.0100
                       cart. coord. in units 2pi/alat
        k(    1) = (   0.0000000   0.0000000   0.0000000), wk =   0.0007289
        k(    2) = (  -0.0714286   0.0714286  -0.0714286), wk =   0.0058309
        k(    3) = (  -0.1428571   0.1428571  -0.1428571), wk =   0.0058309
        k(    4) = (  -0.2142857   0.2142857  -0.2142857), wk =   0.0058309
        k(    5) = (  -0.2857143   0.2857143  -0.2857143), wk =   0.0058309
        k(    6) = (  -0.3571429   0.3571429  -0.3571429), wk =   0.0058309
        k(    7) = (  -0.4285714   0.4285714  -0.4285714), wk =   0.0058309
        k(    8) = (   0.5000000  -0.5000000   0.5000000), wk =   0.0029155
        k(    9) = (   0.0000000   0.1428571   0.0000000), wk =   0.0043732
        k(   10) = (  -0.0714286   0.2142857  -0.0714286), wk =   0.0174927
        k(   11) = (  -0.1428571   0.2857143  -0.1428571), wk =   0.0174927
        k(   12) = (  -0.2142857   0.3571429  -0.2142857), wk =   0.0174927
        k(   13) = (  -0.2857143   0.4285714  -0.2857143), wk =   0.0174927
        k(   14) = (  -0.3571429   0.5000000  -0.3571429), wk =   0.0174927
        k(   15) = (   0.5714286  -0.4285714   0.5714286), wk =   0.0174927
        k(   16) = (   0.5000000  -0.3571429   0.5000000), wk =   0.0174927
        k(   17) = (   0.4285714  -0.2857143   0.4285714), wk =   0.0174927
        k(   18) = (   0.3571429  -0.2142857   0.3571429), wk =   0.0174927
        k(   19) = (   0.2857143  -0.1428571   0.2857143), wk =   0.0174927
        k(   20) = (   0.2142857  -0.0714286   0.2142857), wk =   0.0174927
        k(   21) = (   0.1428571   0.0000000   0.1428571), wk =   0.0087464
        k(   22) = (   0.0000000   0.2857143   0.0000000), wk =   0.0043732
        k(   23) = (  -0.0714286   0.3571429  -0.0714286), wk =   0.0174927
        k(   24) = (  -0.1428571   0.4285714  -0.1428571), wk =   0.0174927
        k(   25) = (  -0.2142857   0.5000000  -0.2142857), wk =   0.0174927
        k(   26) = (  -0.2857143   0.5714286  -0.2857143), wk =   0.0174927
        k(   27) = (   0.6428571  -0.3571429   0.6428571), wk =   0.0174927
        k(   28) = (   0.5714286  -0.2857143   0.5714286), wk =   0.0174927
        k(   29) = (   0.5000000  -0.2142857   0.5000000), wk =   0.0174927
        k(   30) = (   0.4285714  -0.1428571   0.4285714), wk =   0.0174927
        k(   31) = (   0.3571429  -0.0714286   0.3571429), wk =   0.0174927
        k(   32) = (   0.2857143  -0.0000000   0.2857143), wk =   0.0087464
        k(   33) = (   0.0000000   0.4285714   0.0000000), wk =   0.0043732
        k(   34) = (  -0.0714286   0.5000000  -0.0714286), wk =   0.0174927
        k(   35) = (  -0.1428571   0.5714286  -0.1428571), wk =   0.0174927
        k(   36) = (  -0.2142857   0.6428571  -0.2142857), wk =   0.0174927
        k(   37) = (   0.7142857  -0.2857143   0.7142857), wk =   0.0174927
        k(   38) = (   0.6428571  -0.2142857   0.6428571), wk =   0.0174927
        k(   39) = (   0.5714286  -0.1428571   0.5714286), wk =   0.0174927
        k(   40) = (   0.5000000  -0.0714286   0.5000000), wk =   0.0174927
        k(   41) = (   0.4285714  -0.0000000   0.4285714), wk =   0.0087464
        k(   42) = (   0.0000000   0.5714286   0.0000000), wk =   0.0043732
        k(   43) = (  -0.0714286   0.6428571  -0.0714286), wk =   0.0174927
        k(   44) = (  -0.1428571   0.7142857  -0.1428571), wk =   0.0174927
        k(   45) = (   0.7857143  -0.2142857   0.7857143), wk =   0.0174927
        k(   46) = (   0.7142857  -0.1428571   0.7142857), wk =   0.0174927
        k(   47) = (   0.6428571  -0.0714286   0.6428571), wk =   0.0174927
        k(   48) = (   0.5714286   0.0000000   0.5714286), wk =   0.0087464
        k(   49) = (   0.0000000   0.7142857   0.0000000), wk =   0.0043732
        k(   50) = (  -0.0714286   0.7857143  -0.0714286), wk =   0.0174927
        k(   51) = (   0.8571429  -0.1428571   0.8571429), wk =   0.0174927
        k(   52) = (   0.7857143  -0.0714286   0.7857143), wk =   0.0174927
        k(   53) = (   0.7142857   0.0000000   0.7142857), wk =   0.0087464
        k(   54) = (   0.0000000   0.8571429   0.0000000), wk =   0.0043732
        k(   55) = (   0.9285714  -0.0714286   0.9285714), wk =   0.0174927
        k(   56) = (   0.8571429  -0.0000000   0.8571429), wk =   0.0087464
        k(   57) = (   0.0000000  -1.0000000   0.0000000), wk =   0.0021866
        k(   58) = (  -0.1428571   0.2857143   0.0000000), wk =   0.0174927
        k(   59) = (  -0.2142857   0.3571429  -0.0714286), wk =   0.0349854
        k(   60) = (  -0.2857143   0.4285714  -0.1428571), wk =   0.0349854
        k(   61) = (  -0.3571429   0.5000000  -0.2142857), wk =   0.0349854
        k(   62) = (   0.5714286  -0.4285714   0.7142857), wk =   0.0349854
        k(   63) = (   0.5000000  -0.3571429   0.6428571), wk =   0.0174927
        k(   64) = (  -0.1428571   0.4285714   0.0000000), wk =   0.0174927
        k(   65) = (  -0.2142857   0.5000000  -0.0714286), wk =   0.0349854
        k(   66) = (  -0.2857143   0.5714286  -0.1428571), wk =   0.0349854
        k(   67) = (   0.6428571  -0.3571429   0.7857143), wk =   0.0349854
        k(   68) = (   0.5714286  -0.2857143   0.7142857), wk =   0.0349854
        k(   69) = (   0.5000000  -0.2142857   0.6428571), wk =   0.0349854
        k(   70) = (   0.4285714  -0.1428571   0.5714286), wk =   0.0349854
        k(   71) = (   0.3571429  -0.0714286   0.5000000), wk =   0.0349854
        k(   72) = (   0.2857143  -0.0000000   0.4285714), wk =   0.0174927
        k(   73) = (  -0.1428571   0.5714286  -0.0000000), wk =   0.0174927
        k(   74) = (  -0.2142857   0.6428571  -0.0714286), wk =   0.0349854
        k(   75) = (   0.7142857  -0.2857143   0.8571429), wk =   0.0349854
        k(   76) = (   0.6428571  -0.2142857   0.7857143), wk =   0.0349854
        k(   77) = (   0.5714286  -0.1428571   0.7142857), wk =   0.0349854
        k(   78) = (   0.5000000  -0.0714286   0.6428571), wk =   0.0349854
        k(   79) = (   0.4285714  -0.0000000   0.5714286), wk =   0.0174927
        k(   80) = (  -0.1428571   0.7142857   0.0000000), wk =   0.0174927
        k(   81) = (   0.7857143  -0.2142857   0.9285714), wk =   0.0349854
        k(   82) = (   0.7142857  -0.1428571   0.8571429), wk =   0.0349854
        k(   83) = (   0.6428571  -0.0714286   0.7857143), wk =   0.0349854
        k(   84) = (   0.5714286   0.0000000   0.7142857), wk =   0.0174927
        k(   85) = (   0.8571429  -0.1428571   1.0000000), wk =   0.0174927
        k(   86) = (   0.7857143  -0.0714286   0.9285714), wk =   0.0349854
        k(   87) = (   0.7142857   0.0000000   0.8571429), wk =   0.0174927
        k(   88) = (  -0.1428571  -1.0000000   0.0000000), wk =   0.0087464
        k(   89) = (  -0.2857143   0.5714286   0.0000000), wk =   0.0174927
        k(   90) = (   0.6428571  -0.3571429   0.9285714), wk =   0.0349854
        k(   91) = (   0.5714286  -0.2857143   0.8571429), wk =   0.0349854
        k(   92) = (   0.5000000  -0.2142857   0.7857143), wk =   0.0174927
        k(   93) = (   0.7142857  -0.2857143   1.0000000), wk =   0.0174927
        k(   94) = (   0.6428571  -0.2142857   0.9285714), wk =   0.0349854
        k(   95) = (   0.5714286  -0.1428571   0.8571429), wk =   0.0349854
        k(   96) = (   0.5000000  -0.0714286   0.7857143), wk =   0.0349854
        k(   97) = (   0.4285714   0.0000000   0.7142857), wk =   0.0174927
        k(   98) = (   0.7142857  -0.1428571   1.0000000), wk =   0.0174927
        k(   99) = (   0.6428571  -0.0714286   0.9285714), wk =   0.0349854
        k(  100) = (   0.5714286   0.0000000   0.8571429), wk =   0.0174927
        k(  101) = (  -0.2857143  -1.0000000  -0.0000000), wk =   0.0087464
        k(  102) = (   0.5714286  -0.1428571   1.0000000), wk =   0.0174927
        k(  103) = (   0.5000000  -0.0714286   0.9285714), wk =   0.0174927
        k(  104) = (  -0.4285714  -1.0000000   0.0000000), wk =   0.0087464

                       cryst. coord.
        k(    1) = (   0.0000000   0.0000000   0.0000000), wk =   0.0007289
        k(    2) = (   0.0000000   0.0000000   0.0714286), wk =   0.0058309
        k(    3) = (   0.0000000   0.0000000   0.1428571), wk =   0.0058309
        k(    4) = (   0.0000000   0.0000000   0.2142857), wk =   0.0058309
        k(    5) = (   0.0000000   0.0000000   0.2857143), wk =   0.0058309
        k(    6) = (   0.0000000   0.0000000   0.3571429), wk =   0.0058309
        k(    7) = (   0.0000000   0.0000000   0.4285714), wk =   0.0058309
        k(    8) = (   0.0000000   0.0000000  -0.5000000), wk =   0.0029155
        k(    9) = (   0.0000000   0.0714286   0.0714286), wk =   0.0043732
        k(   10) = (   0.0000000   0.0714286   0.1428571), wk =   0.0174927
        k(   11) = (   0.0000000   0.0714286   0.2142857), wk =   0.0174927
        k(   12) = (   0.0000000   0.0714286   0.2857143), wk =   0.0174927
        k(   13) = (   0.0000000   0.0714286   0.3571429), wk =   0.0174927
        k(   14) = (   0.0000000   0.0714286   0.4285714), wk =   0.0174927
        k(   15) = (   0.0000000   0.0714286  -0.5000000), wk =   0.0174927
        k(   16) = (   0.0000000   0.0714286  -0.4285714), wk =   0.0174927
        k(   17) = (   0.0000000   0.0714286  -0.3571429), wk =   0.0174927
        k(   18) = (   0.0000000   0.0714286  -0.2857143), wk =   0.0174927
        k(   19) = (   0.0000000   0.0714286  -0.2142857), wk =   0.0174927
        k(   20) = (   0.0000000   0.0714286  -0.1428571), wk =   0.0174927
        k(   21) = (   0.0000000   0.0714286  -0.0714286), wk =   0.0087464
        k(   22) = (   0.0000000   0.1428571   0.1428571), wk =   0.0043732
        k(   23) = (   0.0000000   0.1428571   0.2142857), wk =   0.0174927
        k(   24) = (   0.0000000   0.1428571   0.2857143), wk =   0.0174927
        k(   25) = (   0.0000000   0.1428571   0.3571429), wk =   0.0174927
        k(   26) = (   0.0000000   0.1428571   0.4285714), wk =   0.0174927
        k(   27) = (   0.0000000   0.1428571  -0.5000000), wk =   0.0174927
        k(   28) = (   0.0000000   0.1428571  -0.4285714), wk =   0.0174927
        k(   29) = (   0.0000000   0.1428571  -0.3571429), wk =   0.0174927
        k(   30) = (   0.0000000   0.1428571  -0.2857143), wk =   0.0174927
        k(   31) = (   0.0000000   0.1428571  -0.2142857), wk =   0.0174927
        k(   32) = (   0.0000000   0.1428571  -0.1428571), wk =   0.0087464
        k(   33) = (   0.0000000   0.2142857   0.2142857), wk =   0.0043732
        k(   34) = (   0.0000000   0.2142857   0.2857143), wk =   0.0174927
        k(   35) = (   0.0000000   0.2142857   0.3571429), wk =   0.0174927
        k(   36) = (   0.0000000   0.2142857   0.4285714), wk =   0.0174927
        k(   37) = (   0.0000000   0.2142857  -0.5000000), wk =   0.0174927
        k(   38) = (   0.0000000   0.2142857  -0.4285714), wk =   0.0174927
        k(   39) = (   0.0000000   0.2142857  -0.3571429), wk =   0.0174927
        k(   40) = (   0.0000000   0.2142857  -0.2857143), wk =   0.0174927
        k(   41) = (   0.0000000   0.2142857  -0.2142857), wk =   0.0087464
        k(   42) = (   0.0000000   0.2857143   0.2857143), wk =   0.0043732
        k(   43) = (   0.0000000   0.2857143   0.3571429), wk =   0.0174927
        k(   44) = (   0.0000000   0.2857143   0.4285714), wk =   0.0174927
        k(   45) = (   0.0000000   0.2857143  -0.5000000), wk =   0.0174927
        k(   46) = (   0.0000000   0.2857143  -0.4285714), wk =   0.0174927
        k(   47) = (   0.0000000   0.2857143  -0.3571429), wk =   0.0174927
        k(   48) = (   0.0000000   0.2857143  -0.2857143), wk =   0.0087464
        k(   49) = (   0.0000000   0.3571429   0.3571429), wk =   0.0043732
        k(   50) = (   0.0000000   0.3571429   0.4285714), wk =   0.0174927
        k(   51) = (   0.0000000   0.3571429  -0.5000000), wk =   0.0174927
        k(   52) = (   0.0000000   0.3571429  -0.4285714), wk =   0.0174927
        k(   53) = (   0.0000000   0.3571429  -0.3571429), wk =   0.0087464
        k(   54) = (   0.0000000   0.4285714   0.4285714), wk =   0.0043732
        k(   55) = (   0.0000000   0.4285714  -0.5000000), wk =   0.0174927
        k(   56) = (   0.0000000   0.4285714  -0.4285714), wk =   0.0087464
        k(   57) = (   0.0000000  -0.5000000  -0.5000000), wk =   0.0021866
        k(   58) = (   0.0714286   0.1428571   0.2142857), wk =   0.0174927
        k(   59) = (   0.0714286   0.1428571   0.2857143), wk =   0.0349854
        k(   60) = (   0.0714286   0.1428571   0.3571429), wk =   0.0349854
        k(   61) = (   0.0714286   0.1428571   0.4285714), wk =   0.0349854
        k(   62) = (   0.0714286   0.1428571  -0.5000000), wk =   0.0349854
        k(   63) = (   0.0714286   0.1428571  -0.4285714), wk =   0.0174927
        k(   64) = (   0.0714286   0.2142857   0.2857143), wk =   0.0174927
        k(   65) = (   0.0714286   0.2142857   0.3571429), wk =   0.0349854
        k(   66) = (   0.0714286   0.2142857   0.4285714), wk =   0.0349854
        k(   67) = (   0.0714286   0.2142857  -0.5000000), wk =   0.0349854
        k(   68) = (   0.0714286   0.2142857  -0.4285714), wk =   0.0349854
        k(   69) = (   0.0714286   0.2142857  -0.3571429), wk =   0.0349854
        k(   70) = (   0.0714286   0.2142857  -0.2857143), wk =   0.0349854
        k(   71) = (   0.0714286   0.2142857  -0.2142857), wk =   0.0349854
        k(   72) = (   0.0714286   0.2142857  -0.1428571), wk =   0.0174927
        k(   73) = (   0.0714286   0.2857143   0.3571429), wk =   0.0174927
        k(   74) = (   0.0714286   0.2857143   0.4285714), wk =   0.0349854
        k(   75) = (   0.0714286   0.2857143  -0.5000000), wk =   0.0349854
        k(   76) = (   0.0714286   0.2857143  -0.4285714), wk =   0.0349854
        k(   77) = (   0.0714286   0.2857143  -0.3571429), wk =   0.0349854
        k(   78) = (   0.0714286   0.2857143  -0.2857143), wk =   0.0349854
        k(   79) = (   0.0714286   0.2857143  -0.2142857), wk =   0.0174927
        k(   80) = (   0.0714286   0.3571429   0.4285714), wk =   0.0174927
        k(   81) = (   0.0714286   0.3571429  -0.5000000), wk =   0.0349854
        k(   82) = (   0.0714286   0.3571429  -0.4285714), wk =   0.0349854
        k(   83) = (   0.0714286   0.3571429  -0.3571429), wk =   0.0349854
        k(   84) = (   0.0714286   0.3571429  -0.2857143), wk =   0.0174927
        k(   85) = (   0.0714286   0.4285714  -0.5000000), wk =   0.0174927
        k(   86) = (   0.0714286   0.4285714  -0.4285714), wk =   0.0349854
        k(   87) = (   0.0714286   0.4285714  -0.3571429), wk =   0.0174927
        k(   88) = (   0.0714286  -0.5000000  -0.4285714), wk =   0.0087464
        k(   89) = (   0.1428571   0.2857143   0.4285714), wk =   0.0174927
        k(   90) = (   0.1428571   0.2857143  -0.5000000), wk =   0.0349854
        k(   91) = (   0.1428571   0.2857143  -0.4285714), wk =   0.0349854
        k(   92) = (   0.1428571   0.2857143  -0.3571429), wk =   0.0174927
        k(   93) = (   0.1428571   0.3571429  -0.5000000), wk =   0.0174927
        k(   94) = (   0.1428571   0.3571429  -0.4285714), wk =   0.0349854
        k(   95) = (   0.1428571   0.3571429  -0.3571429), wk =   0.0349854
        k(   96) = (   0.1428571   0.3571429  -0.2857143), wk =   0.0349854
        k(   97) = (   0.1428571   0.3571429  -0.2142857), wk =   0.0174927
        k(   98) = (   0.1428571   0.4285714  -0.4285714), wk =   0.0174927
        k(   99) = (   0.1428571   0.4285714  -0.3571429), wk =   0.0349854
        k(  100) = (   0.1428571   0.4285714  -0.2857143), wk =   0.0174927
        k(  101) = (   0.1428571  -0.5000000  -0.3571429), wk =   0.0087464
        k(  102) = (   0.2142857   0.4285714  -0.3571429), wk =   0.0174927
        k(  103) = (   0.2142857   0.4285714  -0.2857143), wk =   0.0174927
        k(  104) = (   0.2142857  -0.5000000  -0.2857143), wk =   0.0087464

     Dense  grid:     6231 G-vectors     FFT dimensions: (  25,  25,  25)

     Smooth grid:     2229 G-vectors     FFT dimensions: (  20,  20,  20)

     Dynamical RAM for                 wfc:       0.02 MB

     Dynamical RAM for     wfc (w. buffer):       2.23 MB

     Dynamical RAM for           str. fact:       0.05 MB

     Dynamical RAM for           local pot:       0.00 MB

     Dynamical RAM for          nlocal pot:       0.04 MB

     Dynamical RAM for                qrad:       1.34 MB

     Dynamical RAM for          rho,v,vnew:       0.33 MB

     Dynamical RAM for               rhoin:       0.11 MB

     Dynamical RAM for            rho*nmix:       0.76 MB

     Dynamical RAM for           G-vectors:       0.19 MB

     Dynamical RAM for          h,s,v(r/c):       0.02 MB

     Dynamical RAM for          <psi|beta>:       0.00 MB

     Dynamical RAM for                 psi:       0.04 MB

     Dynamical RAM for                hpsi:       0.04 MB

     Dynamical RAM for                spsi:       0.04 MB

     Dynamical RAM for      wfcinit/wfcrot:       0.04 MB

     Dynamical RAM for           addusdens:       8.89 MB

     Estimated static dynamical RAM per process >       4.69 MB

     Estimated max dynamical RAM per process >      14.33 MB

     Estimated total dynamical RAM >      28.67 MB

     Initial potential from superposition of free atoms

     starting charge      10.9998, renormalised to      11.0000
     Starting wfcs are    9 randomized atomic wfcs +    1 random wfcs
     Checking if some PAW data can be deallocated... 

     total cpu time spent up to now is        0.3 secs

     Self-consistent Calculation

     iteration #  1     ecut=    35.00 Ry     beta= 0.70
     Davidson diagonalization with overlap

---- Real-time Memory Report at c_bands before calling an iterative solver
            49 MiB given to the printing process from OS
             0 MiB allocation reported by mallinfo(arena+hblkhd)
          4691 MiB available memory on the node where the printing process lives
------------------
     ethr =  1.00E-02,  avg # of iterations =  4.0

     Threshold (ethr) on eigenvalues was too large:
     Diagonalizing with lowered threshold

     Davidson diagonalization with overlap

---- Real-time Memory Report at c_bands before calling an iterative solver
            50 MiB given to the printing process from OS
             0 MiB allocation reported by mallinfo(arena+hblkhd)
          4690 MiB available memory on the node where the printing process lives
------------------
     ethr =  5.41E-04,  avg # of iterations =  1.2

     total cpu time spent up to now is        0.5 secs

     total energy              =    -213.05710115 Ry
     estimated scf accuracy    <       0.05937630 Ry

     iteration #  2     ecut=    35.00 Ry     beta= 0.70
     Davidson diagonalization with overlap

---- Real-time Memory Report at c_bands before calling an iterative solver
            57 MiB given to the printing process from OS
             0 MiB allocation reported by mallinfo(arena+hblkhd)
          4675 MiB available memory on the node where the printing process lives
------------------
     ethr =  5.40E-04,  avg # of iterations =  2.2

     total cpu time spent up to now is        0.6 secs

     total energy              =    -213.05937281 Ry
     estimated scf accuracy    <       0.20783865 Ry

     iteration #  3     ecut=    35.00 Ry     beta= 0.70
     Davidson diagonalization with overlap

---- Real-time Memory Report at c_bands before calling an iterative solver
            57 MiB given to the printing process from OS
             0 MiB allocation reported by mallinfo(arena+hblkhd)
          4676 MiB available memory on the node where the printing process lives
------------------
     ethr =  5.40E-04,  avg # of iterations =  2.0

     total cpu time spent up to now is        0.8 secs

     total energy              =    -213.09217848 Ry
     estimated scf accuracy    <       0.00012972 Ry

     iteration #  4     ecut=    35.00 Ry     beta= 0.70
     Davidson diagonalization with overlap

---- Real-time Memory Report at c_bands before calling an iterative solver
            58 MiB given to the printing process from OS
             0 MiB allocation reported by mallinfo(arena+hblkhd)
          4676 MiB available memory on the node where the printing process lives
------------------
     ethr =  1.18E-06,  avg # of iterations =  3.6

     total cpu time spent up to now is        0.9 secs

     total energy              =    -213.09223146 Ry
     estimated scf accuracy    <       0.00003865 Ry

     iteration #  5     ecut=    35.00 Ry     beta= 0.70
     Davidson diagonalization with overlap

---- Real-time Memory Report at c_bands before calling an iterative solver
            58 MiB given to the printing process from OS
             0 MiB allocation reported by mallinfo(arena+hblkhd)
          4677 MiB available memory on the node where the printing process lives
------------------
     ethr =  3.51E-07,  avg # of iterations =  1.4

     total cpu time spent up to now is        1.1 secs

     total energy              =    -213.09224040 Ry
     estimated scf accuracy    <       0.00000279 Ry

     iteration #  6     ecut=    35.00 Ry     beta= 0.70
     Davidson diagonalization with overlap

---- Real-time Memory Report at c_bands before calling an iterative solver
            58 MiB given to the printing process from OS
             0 MiB allocation reported by mallinfo(arena+hblkhd)
          4677 MiB available memory on the node where the printing process lives
------------------
     ethr =  2.53E-08,  avg # of iterations =  1.4

     total cpu time spent up to now is        1.2 secs

     End of self-consistent calculation

          k = 0.0000 0.0000 0.0000 (   283 PWs)   bands (ev):

     3.2647   9.6825   9.6825   9.6825  10.5146  10.5146  35.5740  37.9702
    37.9702  37.9702

     occupation numbers 
     1.0000   1.0000   1.0000   1.0000   1.0000   1.0000   0.0000   0.0000
     0.0000   0.0000

          k =-0.0714 0.0714-0.0714 (   283 PWs)   bands (ev):

     3.4503   9.6431   9.7176   9.7176  10.5012  10.5012  34.2160  36.4276
    37.4023  37.4023

     occupation numbers 
     1.0000   1.0000   1.0000   1.0000   1.0000   1.0000   0.0000   0.0000
     0.0000   0.0000

          k =-0.1429 0.1429-0.1429 (   283 PWs)   bands (ev):

     3.9965   9.5427   9.7980   9.7980  10.4841  10.4841  30.5910  36.0344
    36.5198  36.5198

     occupation numbers 
     1.0000   1.0000   1.0000   1.0000   1.0000   1.0000   0.0000   0.0000
     0.0000   0.0000

          k =-0.2143 0.2143-0.2143 (   283 PWs)   bands (ev):

     4.8636   9.4395   9.8480   9.8480  10.5324  10.5324  26.8919  35.6305
    35.7781  35.7781

     occupation numbers 
     1.0000   1.0000   1.0000   1.0000   1.0000   1.0000   0.0000   0.0000
     0.0000   0.0000

          k =-0.2857 0.2857-0.2857 (   286 PWs)   bands (ev):

     5.9425   9.4548   9.8135   9.8135  10.6856  10.6856  23.4202  35.0748
    35.2465  35.2465

     occupation numbers 
     1.0000   1.0000   1.0000   1.0000   1.0000   1.0000   0.0000   0.0000
     0.0000   0.0000

          k =-0.3571 0.3571-0.3571 (   281 PWs)   bands (ev):

     6.9410   9.7372   9.7372   9.8546  10.8798  10.8798  20.2768  34.5184
    34.9261  34.9261

     occupation numbers 
     1.0000   1.0000   1.0000   1.0000   1.0000   1.0000   0.0000   0.0000
     0.0000   0.0000

          k =-0.4286 0.4286-0.4286 (   269 PWs)   bands (ev):

     7.4676   9.6728   9.6728  10.8637  11.0331  11.0331  17.6759  34.1222
    34.7776  34.7776

     occupation numbers 
     1.0000   1.0000   1.0000   1.0000   1.0000   1.0000   0.0000   0.0000
     0.0000   0.0000

          k = 0.5000-0.5000 0.5000 (   272 PWs)   bands (ev):

     7.5926   9.6484   9.6484  11.0893  11.0893  11.6235  16.4317  33.9805
    34.7391  34.7391

     occupation numbers 
     1.0000   1.0000   1.0000   1.0000   1.0000   1.0000   0.0000   0.0000
     0.0000   0.0000

          k = 0.0000 0.1429 0.0000 (   279 PWs)   bands (ev):

     3.5120   9.6089   9.7418   9.7418  10.4489  10.5416  34.7534  35.9648
    35.9648  37.0412

     occupation numbers 
     1.0000   1.0000   1.0000   1.0000   1.0000   1.0000   0.0000   0.0000
     0.0000   0.0000

          k =-0.0714 0.2143-0.0714 (   283 PWs)   bands (ev):

     3.9376   9.5147   9.8178   9.8212  10.3845  10.5645  31.9592  34.7494
    35.0745  37.7765

     occupation numbers 
     1.0000   1.0000   1.0000   1.0000   1.0000   1.0000   0.0000   0.0000
     0.0000   0.0000

          k =-0.1429 0.2857-0.1429 (   287 PWs)   bands (ev):

     4.6989   9.3997   9.8736   9.8923  10.3909  10.6181  28.2331  33.8192
    34.5468  38.8509

     occupation numbers 
     1.0000   1.0000   1.0000   1.0000   1.0000   1.0000   0.0000   0.0000
     0.0000   0.0000

          k =-0.2143 0.3571-0.2143 (   285 PWs)   bands (ev):

     5.7173   9.3412   9.8204   9.8903  10.5718  10.7489  24.6746  33.2020
    34.0652  36.9442

     occupation numbers 
     1.0000   1.0000   1.0000   1.0000   1.0000   1.0000   0.0000   0.0000
     0.0000   0.0000

          k =-0.2857 0.4286-0.2857 (   282 PWs)   bands (ev):

     6.7762   9.5058   9.7176   9.8280  10.8962  10.9197  21.4001  32.9143
    33.6252  35.3273

     occupation numbers 
     1.0000   1.0000   1.0000   1.0000   1.0000   1.0000   0.0000   0.0000
     0.0000   0.0000

          k =-0.3571 0.5000-0.3571 (   277 PWs)   bands (ev):

     7.4621   9.6221   9.7561  10.0660  11.0536  11.4332  18.5574  32.9792
    33.0907  34.2939

     occupation numbers 
     1.0000   1.0000   1.0000   1.0000   1.0000   1.0000   0.0000   0.0000
     0.0000   0.0000

          k = 0.5714-0.4286 0.5714 (   273 PWs)   bands (ev):

     7.6817   9.5834   9.7115  10.4990  11.0932  12.2481  16.6434  32.3569
    33.4279  34.0463

     occupation numbers 
     1.0000   1.0000   1.0000   1.0000   1.0000   1.0031   0.0000   0.0000
     0.0000   0.0000

          k = 0.5000-0.3571 0.5000 (   274 PWs)   bands (ev):

     7.6452   9.6011   9.7122  10.4468  11.0183  12.0292  17.1053  31.7661
    34.2692  34.3047

     occupation numbers 
     1.0000   1.0000   1.0000   1.0000   1.0000   1.0000   0.0000   0.0000
     0.0000   0.0000

          k = 0.4286-0.2857 0.4286 (   277 PWs)   bands (ev):

     7.2971   9.6686   9.7606   9.8875  10.8440  11.3452  19.4455  31.4851
    34.9180  35.4728

     occupation numbers 
     1.0000   1.0000   1.0000   1.0000   1.0000   1.0000   0.0000   0.0000
     0.0000   0.0000

          k = 0.3571-0.2143 0.3571 (   284 PWs)   bands (ev):

     6.4444   9.4326   9.7619   9.8403  10.6197  10.9927  22.4565  31.5277
    35.8069  36.8829

     occupation numbers 
     1.0000   1.0000   1.0000   1.0000   1.0000   1.0000   0.0000   0.0000
     0.0000   0.0000

          k = 0.2857-0.1429 0.2857 (   288 PWs)   bands (ev):

     5.3587   9.3640   9.8382   9.9032  10.4269  10.7507  25.8340  31.8742
    36.7910  37.9517

     occupation numbers 
     1.0000   1.0000   1.0000   1.0000   1.0000   1.0000   0.0000   0.0000
     0.0000   0.0000

          k = 0.2143-0.0714 0.2143 (   283 PWs)   bands (ev):

     4.4109   9.4556   9.8463   9.8658  10.3744  10.5990  29.4644  32.5205
    37.4009  38.5761

     occupation numbers 
     1.0000   1.0000   1.0000   1.0000   1.0000   1.0000   0.0000   0.0000
     0.0000   0.0000

          k = 0.1429 0.0000 0.1429 (   283 PWs)   bands (ev):

     3.7561   9.5714   9.7691   9.7821  10.4338  10.5362  32.8713  33.7969
    37.2331  38.6619

     occupation numbers 
     1.0000   1.0000   1.0000   1.0000   1.0000   1.0000   0.0000   0.0000
     0.0000   0.0000

          k = 0.0000 0.2857 0.0000 (   295 PWs)   bands (ev):

     4.2369   9.4046   9.9146   9.9146  10.2730  10.6174  33.2885  33.2885
    33.3784  35.2770

     occupation numbers 
     1.0000   1.0000   1.0000   1.0000   1.0000   1.0000   0.0000   0.0000
     0.0000   0.0000

          k =-0.0714 0.3571-0.0714 (   291 PWs)   bands (ev):

     4.8737   9.2712   9.9665  10.0209  10.2632  10.6781  29.8057  32.1678
    33.5220  35.5163

     occupation numbers 
     1.0000   1.0000   1.0000   1.0000   1.0000   1.0000   0.0000   0.0000
     0.0000   0.0000

          k =-0.1429 0.4286-0.1429 (   293 PWs)   bands (ev):

     5.7875   9.1603   9.8331  10.0620  10.5352  10.7950  26.1990  31.3961
    32.9185  34.6052

     occupation numbers 
     1.0000   1.0000   1.0000   1.0000   1.0000   1.0000   0.0000   0.0000
     0.0000   0.0000

          k =-0.2143 0.5000-0.2143 (   286 PWs)   bands (ev):

     6.8188   9.1540   9.6763  10.0238  10.9530  11.0096  22.8222  31.0001
    31.8843  33.6196

     occupation numbers 
     1.0000   1.0000   1.0000   1.0000   1.0000   1.0000   0.0000   0.0000
     0.0000   0.0000

          k =-0.2857 0.5714-0.2857 (   278 PWs)   bands (ev):

     7.6090   9.3255   9.6268   9.9533  11.0762  11.7877  19.7807  30.5703
    31.0097  33.2886

     occupation numbers 
     1.0000   1.0000   1.0000   1.0000   1.0000   1.0000   0.0000   0.0000
     0.0000   0.0000

          k = 0.6429-0.3571 0.6429 (   276 PWs)   bands (ev):

     7.9223   9.3772   9.8818   9.8926  11.1040  12.9574  17.3332  29.4218
    31.4429  33.3278

     occupation numbers 
     1.0000   1.0000   1.0000   1.0000   1.0000   0.0000   0.0000   0.0000
     0.0000   0.0000

          k = 0.5714-0.2857 0.5714 (   280 PWs)   bands (ev):

     7.9623   9.4013   9.8675   9.9744  11.0148  13.3279  16.8219  28.5819
    32.3093  33.6824

     occupation numbers 
     1.0000   1.0000   1.0000   1.0000   1.0000   0.0000   0.0000   0.0000
     0.0000   0.0000

          k = 0.5000-0.2143 0.5000 (   276 PWs)   bands (ev):

     7.7817   9.4859   9.6941   9.8900  10.8236  12.2954  18.8960  28.0923
    33.5941  34.3749

     occupation numbers 
     1.0000   1.0000   1.0000   1.0000   1.0000   1.0113   0.0000   0.0000
     0.0000   0.0000

          k = 0.4286-0.1429 0.4286 (   277 PWs)   bands (ev):

     7.1547   9.3260   9.6186   9.9579  10.5723  11.5452  21.7900  27.9639
    35.2570  35.4220

     occupation numbers 
     1.0000   1.0000   1.0000   1.0000   1.0000   1.0000   0.0000   0.0000
     0.0000   0.0000

          k = 0.3571-0.0714 0.3571 (   284 PWs)   bands (ev):

     6.1405   9.2430   9.7541  10.0473  10.3248  11.1000  25.0632  28.1894
    36.8249  37.2411

     occupation numbers 
     1.0000   1.0000   1.0000   1.0000   1.0000   1.0000   0.0000   0.0000
     0.0000   0.0000

          k = 0.2857-0.0000 0.2857 (   285 PWs)   bands (ev):

     5.1524   9.3290   9.8436  10.0070  10.2635  10.7939  28.3359  29.0227
    38.5295  38.7879

     occupation numbers 
     1.0000   1.0000   1.0000   1.0000   1.0000   1.0000   0.0000   0.0000
     0.0000   0.0000

          k = 0.0000 0.4286 0.0000 (   291 PWs)   bands (ev):

     5.3702   9.1152  10.0800  10.1863  10.1863  10.7282  30.8545  30.8545
    32.2029  32.8757

     occupation numbers 
     1.0000   1.0000   1.0000   1.0000   1.0000   1.0000   0.0000   0.0000
     0.0000   0.0000

          k =-0.0714 0.5000-0.0714 (   288 PWs)   bands (ev):

     6.1327   8.9721   9.9254  10.2973  10.5010  10.8213  27.8963  29.9064
    31.2115  32.7201

     occupation numbers 
     1.0000   1.0000   1.0000   1.0000   1.0000   1.0000   0.0000   0.0000
     0.0000   0.0000

          k =-0.1429 0.5714-0.1429 (   282 PWs)   bands (ev):

     7.0282   8.8865   9.7523  10.2986  10.9715  11.0679  24.5119  29.3602
    29.4708  32.6431

     occupation numbers 
     1.0000   1.0000   1.0000   1.0000   1.0000   1.0000   0.0000   0.0000
     0.0000   0.0000

          k =-0.2143 0.6429-0.2143 (   280 PWs)   bands (ev):

     7.7932   8.9087   9.6329  10.2380  11.0947  12.0156  21.3485  27.8814
    29.2474  32.5489

     occupation numbers 
     1.0000   1.0000   1.0000   1.0000   1.0000   1.0000   0.0000   0.0000
     0.0000   0.0000

          k = 0.7143-0.2857 0.7143 (   277 PWs)   bands (ev):

     8.1894   9.0081   9.6375  10.1671  11.1207  13.4483  18.5680  26.5695
    29.5925  32.6324

     occupation numbers 
     1.0000   1.0000   1.0000   1.0000   1.0000   0.0000   0.0000   0.0000
     0.0000   0.0000

          k = 0.6429-0.2143 0.6429 (   277 PWs)   bands (ev):

     8.3203   9.0875   9.6681  10.1155  11.0262  14.7221  16.8993  25.5759
    30.3931  32.9478

     occupation numbers 
     1.0000   1.0000   1.0000   1.0000   1.0000   0.0000   0.0000   0.0000
     0.0000   0.0000

          k = 0.5714-0.1429 0.5714 (   277 PWs)   bands (ev):

     8.2853   9.2059   9.5103  10.0994  10.8299  13.6052  18.5965  24.9401
    31.6155  33.5421

     occupation numbers 
     1.0000   1.0000   1.0000   1.0000   1.0000   0.0000   0.0000   0.0000
     0.0000   0.0000

          k = 0.5000-0.0714 0.5000 (   278 PWs)   bands (ev):

     7.9230   9.2301   9.3942  10.1234  10.5765  12.3825  21.3802  24.6878
    33.2077  34.4399

     occupation numbers 
     1.0000   1.0000   1.0000   1.0000   1.0000   1.0564   0.0000   0.0000
     0.0000   0.0000

          k = 0.4286-0.0000 0.4286 (   275 PWs)   bands (ev):

     7.0916   9.1604   9.5904  10.1648  10.3375  11.6090  24.2377  25.1149
    35.1117  35.6221

     occupation numbers 
     1.0000   1.0000   1.0000   1.0000   1.0000   1.0000   0.0000   0.0000
     0.0000   0.0000

          k = 0.0000 0.5714 0.0000 (   290 PWs)   bands (ev):

     6.6839   8.8016  10.1267  10.5233  10.5233  10.8519  28.7755  28.7755
    29.0490  31.3276

     occupation numbers 
     1.0000   1.0000   1.0000   1.0000   1.0000   1.0000   0.0000   0.0000
     0.0000   0.0000

          k =-0.0714 0.6429-0.0714 (   282 PWs)   bands (ev):

     7.3080   8.6791  10.1404  10.6066  10.9691  11.0377  26.2923  27.1445
    28.0584  31.7522

     occupation numbers 
     1.0000   1.0000   1.0000   1.0000   1.0000   1.0000   0.0000   0.0000
     0.0000   0.0000

          k =-0.1429 0.7143-0.1429 (   273 PWs)   bands (ev):

     7.8428   8.6360  10.0129  10.5665  11.1047  12.1389  23.2027  25.4237
    27.7966  31.9425

     occupation numbers 
     1.0000   1.0000   1.0000   1.0000   1.0000   1.0001   0.0000   0.0000
     0.0000   0.0000

          k = 0.7857-0.2143 0.7857 (   277 PWs)   bands (ev):

     8.2121   8.6789   9.8669  10.4917  11.1411  13.7438  20.2847  24.0085
    28.0170  32.0576

     occupation numbers 
     1.0000   1.0000   1.0000   1.0000   1.0000   0.0000   0.0000   0.0000
     0.0000   0.0000

          k = 0.7143-0.1429 0.7143 (   278 PWs)   bands (ev):

     8.4618   8.7686   9.7058  10.4143  11.0541  15.6811  17.7999  22.9298
    28.7180  32.3197

     occupation numbers 
     1.0000   1.0000   1.0000   1.0000   1.0000   0.0000   0.0000   0.0000
     0.0000   0.0000

          k = 0.6429-0.0714 0.6429 (   274 PWs)   bands (ev):

     8.6075   8.9023   9.4873  10.3433  10.8771  15.2705  18.4079  22.2456
    29.8629  32.7925

     occupation numbers 
     1.0000   1.0000   1.0000   1.0000   1.0000   0.0000   0.0000   0.0000
     0.0000   0.0000

          k = 0.5714 0.0000 0.5714 (   280 PWs)   bands (ev):

     8.4813   9.1316   9.2620  10.2606  10.6837  13.6075  20.6641  22.3372
    31.3803  33.5021

     occupation numbers 
     1.0000   1.0000   1.0000   1.0000   1.0000   0.0000   0.0000   0.0000
     0.0000   0.0000

          k = 0.0000 0.7143 0.0000 (   274 PWs)   bands (ev):

     7.5688   8.5256  10.8674  10.8674  10.9647  11.0265  25.0418  27.1594
    27.1594  30.7451

     occupation numbers 
     1.0000   1.0000   1.0000   1.0000   1.0000   1.0000   0.0000   0.0000
     0.0000   0.0000

          k =-0.0714 0.7857-0.0714 (   281 PWs)   bands (ev):

     7.7977   8.4487  10.7018  10.8724  11.1031  12.2726  23.2713  25.1449
    26.7254  31.2224

     occupation numbers 
     1.0000   1.0000   1.0000   1.0000   1.0000   1.0063   0.0000   0.0000
     0.0000   0.0000

          k = 0.8571-0.1429 0.8571 (   276 PWs)   bands (ev):

     8.0209   8.4640  10.4315  10.8017  11.1653  13.9315  21.8419  22.3770
    26.7990  31.5790

     occupation numbers 
     1.0000   1.0000   1.0000   1.0000   1.0000   0.0000   0.0000   0.0000
     0.0000   0.0000

          k = 0.7857-0.0714 0.7857 (   276 PWs)   bands (ev):

     8.2606   8.5598  10.1045  10.7028  11.1017  15.8493  19.6625  20.9240
    27.3795  31.8427

     occupation numbers 
     1.0000   1.0000   1.0000   1.0000   1.0000   0.0000   0.0000   0.0000
     0.0000   0.0000

          k = 0.7143 0.0000 0.7143 (   276 PWs)   bands (ev):

     8.5169   8.6961   9.7494  10.5568  10.9766  17.2924  17.6523  20.7389
    28.4229  32.2242

     occupation numbers 
     1.0000   1.0000   1.0000   1.0000   1.0000   0.0000   0.0000   0.0000
     0.0000   0.0000

          k = 0.0000 0.8571 0.0000 (   286 PWs)   bands (ev):

     7.7866   8.3382  11.0422  11.1323  11.1323  12.8628  21.5478  26.1144
    26.1144  30.3933

     occupation numbers 
     1.0000   1.0000   1.0000   1.0000   1.0000   0.0016   0.0000   0.0000
     0.0000   0.0000

          k = 0.9286-0.0714 0.9286 (   276 PWs)   bands (ev):

     7.8592   8.3227  10.9941  11.0119  11.2022  14.0670  20.3535  24.5093
    26.0204  30.9809

     occupation numbers 
     1.0000   1.0000   1.0000   1.0000   1.0000   0.0000   0.0000   0.0000
     0.0000   0.0000

          k = 0.8571-0.0000 0.8571 (   280 PWs)   bands (ev):

     8.0227   8.4042  10.5940  10.9084  11.1674  15.2782  19.9640  22.0614
    26.4554  31.4598

     occupation numbers 
     1.0000   1.0000   1.0000   1.0000   1.0000   0.0000   0.0000   0.0000
     0.0000   0.0000

          k = 0.0000-1.0000 0.0000 (   286 PWs)   bands (ev):

     7.8013   8.2720  11.0709  11.2339  11.2339  14.1283  19.7799  25.7514
    25.7514  30.2730

     occupation numbers 
     1.0000   1.0000   1.0000   1.0000   1.0000   0.0000   0.0000   0.0000
     0.0000   0.0000

          k =-0.1429 0.2857 0.0000 (   290 PWs)   bands (ev):

     4.4710   9.3978   9.8835   9.9236  10.3102  10.6314  30.6750  31.3671
    36.2790  37.2401

     occupation numbers 
     1.0000   1.0000   1.0000   1.0000   1.0000   1.0000   0.0000   0.0000
     0.0000   0.0000

          k =-0.2143 0.3571-0.0714 (   289 PWs)   bands (ev):

     5.3149   9.2785   9.8503  10.0153  10.3421  10.7839  27.2686  30.3233
    35.8035  37.0002

     occupation numbers 
     1.0000   1.0000   1.0000   1.0000   1.0000   1.0000   0.0000   0.0000
     0.0000   0.0000

          k =-0.2857 0.4286-0.1429 (   282 PWs)   bands (ev):

     6.3571   9.2396   9.7296   9.9870  10.5623  11.0523  23.8055  29.8711
    34.3937  36.1745

     occupation numbers 
     1.0000   1.0000   1.0000   1.0000   1.0000   1.0000   0.0000   0.0000
     0.0000   0.0000

          k =-0.3571 0.5000-0.2143 (   280 PWs)   bands (ev):

     7.3030   9.4241   9.6115   9.9133  10.8299  11.5023  20.6379  29.7499
    32.8962  35.5757

     occupation numbers 
     1.0000   1.0000   1.0000   1.0000   1.0000   1.0000   0.0000   0.0000
     0.0000   0.0000

          k = 0.5714-0.4286 0.7143 (   275 PWs)   bands (ev):

     7.7771   9.4815   9.8291   9.9176  11.0091  12.3603  17.9557  29.9685
    31.6399  35.1920

     occupation numbers 
     1.0000   1.0000   1.0000   1.0000   1.0000   1.0414   0.0000   0.0000
     0.0000   0.0000

          k = 0.5000-0.3571 0.6429 (   278 PWs)   bands (ev):

     7.8832   9.4500   9.8199  10.1092  11.0648  13.1403  16.5673  30.3408
    30.9092  35.0562

     occupation numbers 
     1.0000   1.0000   1.0000   1.0000   1.0000   0.0000   0.0000   0.0000
     0.0000   0.0000

          k =-0.1429 0.4286 0.0000 (   288 PWs)   bands (ev):

     5.5849   9.1317   9.8888  10.1889  10.3298  10.7973  28.6946  29.2226
    33.6479  34.7254

     occupation numbers 
     1.0000   1.0000   1.0000   1.0000   1.0000   1.0000   0.0000   0.0000
     0.0000   0.0000

          k =-0.2143 0.5000-0.0714 (   283 PWs)   bands (ev):

     6.5151   9.0307   9.7193  10.2353  10.5759  11.0754  25.4127  28.4242
    31.8248  35.0171

     occupation numbers 
     1.0000   1.0000   1.0000   1.0000   1.0000   1.0000   0.0000   0.0000
     0.0000   0.0000

          k =-0.2857 0.5714-0.1429 (   279 PWs)   bands (ev):

     7.4446   9.0406   9.5617  10.1750  10.8702  11.6352  22.1416  28.1869
    30.1391  34.8363

     occupation numbers 
     1.0000   1.0000   1.0000   1.0000   1.0000   1.0000   0.0000   0.0000
     0.0000   0.0000

          k = 0.6429-0.3571 0.7857 (   275 PWs)   bands (ev):

     8.0148   9.1622   9.5486  10.0996  11.0337  12.6970  19.2192  28.2561
    28.8010  34.7825

     occupation numbers 
     1.0000   1.0000   1.0000   1.0000   1.0000   0.1453   0.0000   0.0000
     0.0000   0.0000

          k = 0.5714-0.2857 0.7143 (   276 PWs)   bands (ev):

     8.1951   9.1893   9.7110  10.0390  11.0580  14.0657  17.0215  27.5412
    28.9451  34.9810

     occupation numbers 
     1.0000   1.0000   1.0000   1.0000   1.0000   0.0000   0.0000   0.0000
     0.0000   0.0000

          k = 0.5000-0.2143 0.6429 (   276 PWs)   bands (ev):

     8.1832   9.2347   9.6590  10.0327  10.9671  13.6870  17.6155  26.7965
    29.8388  35.4922

     occupation numbers 
     1.0000   1.0000   1.0000   1.0000   1.0000   0.0000   0.0000   0.0000
     0.0000   0.0000

          k = 0.4286-0.1429 0.5714 (   279 PWs)   bands (ev):

     7.9217   9.2811   9.4303  10.0827  10.7740  12.4175  20.1645  26.4089
    31.0809  36.3427

     occupation numbers 
     1.0000   1.0000   1.0000   1.0000   1.0000   1.0778   0.0000   0.0000
     0.0000   0.0000

          k = 0.3571-0.0714 0.5000 (   278 PWs)   bands (ev):

     7.1866   9.1330   9.5574  10.1616  10.5065  11.6022  23.2181  26.3958
    32.6242  37.4869

     occupation numbers 
     1.0000   1.0000   1.0000   1.0000   1.0000   1.0000   0.0000   0.0000
     0.0000   0.0000

          k = 0.2857-0.0000 0.4286 (   282 PWs)   bands (ev):

     6.1980   9.1620   9.7283  10.2201  10.2678  11.1085  26.3140  27.0081
    34.4136  38.1448

     occupation numbers 
     1.0000   1.0000   1.0000   1.0000   1.0000   1.0000   0.0000   0.0000
     0.0000   0.0000

          k =-0.1429 0.5714-0.0000 (   285 PWs)   bands (ev):

     6.8675   8.8393   9.8527  10.5228  10.6245  11.0535  26.9772  27.4070
    29.3670  33.4768

     occupation numbers 
     1.0000   1.0000   1.0000   1.0000   1.0000   1.0000   0.0000   0.0000
     0.0000   0.0000

          k =-0.2143 0.6429-0.0714 (   280 PWs)   bands (ev):

     7.6125   8.7758   9.7197  10.5136  10.8914  11.7131  23.9094  26.8430
    27.5842  33.9396

     occupation numbers 
     1.0000   1.0000   1.0000   1.0000   1.0000   1.0000   0.0000   0.0000
     0.0000   0.0000

          k = 0.7143-0.2857 0.8571 (   280 PWs)   bands (ev):

     8.1482   8.8071   9.6140  10.4235  11.0574  12.9442  20.8701  25.9670
    26.9613  34.0297

     occupation numbers 
     1.0000   1.0000   1.0000   1.0000   1.0000   0.0001   0.0000   0.0000
     0.0000   0.0000

          k = 0.6429-0.2143 0.7857 (   278 PWs)   bands (ev):

     8.4268   8.8718   9.5777  10.3294  11.0774  14.6626  18.2179  24.7676
    27.3967  34.2774

     occupation numbers 
     1.0000   1.0000   1.0000   1.0000   1.0000   0.0000   0.0000   0.0000
     0.0000   0.0000

          k = 0.5714-0.1429 0.7143 (   274 PWs)   bands (ev):

     8.5521   8.9365   9.5023  10.2691  10.9758  15.3148  17.4985  23.8944
    28.2374  34.7969

     occupation numbers 
     1.0000   1.0000   1.0000   1.0000   1.0000   0.0000   0.0000   0.0000
     0.0000   0.0000

          k = 0.5000-0.0714 0.6429 (   275 PWs)   bands (ev):

     8.4747   9.0945   9.2793  10.2697  10.7845  13.6959  19.9072  23.4018
    29.4247  35.6258

     occupation numbers 
     1.0000   1.0000   1.0000   1.0000   1.0000   0.0000   0.0000   0.0000
     0.0000   0.0000

          k = 0.4286-0.0000 0.5714 (   275 PWs)   bands (ev):

     8.0022   9.1028   9.3352  10.2817  10.5688  12.4317  22.4843  23.6429
    30.9016  36.7427

     occupation numbers 
     1.0000   1.0000   1.0000   1.0000   1.0000   1.0825   0.0000   0.0000
     0.0000   0.0000

          k =-0.1429 0.7143 0.0000 (   280 PWs)   bands (ev):

     7.7179   8.5806  10.2051  10.8659  10.8953  11.7982  25.1965  25.5996
    26.0806  32.6304

     occupation numbers 
     1.0000   1.0000   1.0000   1.0000   1.0000   1.0000   0.0000   0.0000
     0.0000   0.0000

          k = 0.7857-0.2143 0.9286 (   277 PWs)   bands (ev):

     8.0445   8.5698  10.0728  10.7635  11.0790  13.1549  22.8161  23.6415
    25.7803  33.2832

     occupation numbers 
     1.0000   1.0000   1.0000   1.0000   1.0000   0.0000   0.0000   0.0000
     0.0000   0.0000

          k = 0.7143-0.1429 0.8571 (   277 PWs)   bands (ev):

     8.3066   8.6387   9.8811  10.6307  11.1211  14.9703  20.0357  22.3791
    26.1223  33.5916

     occupation numbers 
     1.0000   1.0000   1.0000   1.0000   1.0000   0.0000   0.0000   0.0000
     0.0000   0.0000

          k = 0.6429-0.0714 0.7857 (   277 PWs)   bands (ev):

     8.5534   8.7328   9.6416  10.5077  11.0383  16.9406  17.7229  21.5228
    26.8850  34.0398

     occupation numbers 
     1.0000   1.0000   1.0000   1.0000   1.0000   0.0000   0.0000   0.0000
     0.0000   0.0000

          k = 0.5714 0.0000 0.7143 (   278 PWs)   bands (ev):

     8.7303   8.8424   9.3743  10.4026  10.8938  15.3779  19.2139  21.4612
    28.0058  34.7254

     occupation numbers 
     1.0000   1.0000   1.0000   1.0000   1.0000   0.0000   0.0000   0.0000
     0.0000   0.0000

          k = 0.8571-0.1429 1.0000 (   281 PWs)   bands (ev):

     7.9097   8.4043  10.6482  10.9909  11.1317  13.4735  21.7022  24.6907
    25.1341  32.1407

     occupation numbers 
     1.0000   1.0000   1.0000   1.0000   1.0000   0.0000   0.0000   0.0000
     0.0000   0.0000

          k = 0.7857-0.0714 0.9286 (   279 PWs)   bands (ev):

     8.0759   8.4575  10.3908  10.8614  11.1889  15.0602  20.5935  22.2516
    25.1798  32.9681

     occupation numbers 
     1.0000   1.0000   1.0000   1.0000   1.0000   0.0000   0.0000   0.0000
     0.0000   0.0000

          k = 0.7143 0.0000 0.8571 (   276 PWs)   bands (ev):

     8.2986   8.5880  10.0193  10.7037  11.1335  16.5518  19.6374  20.3989
    25.8409  33.4512

     occupation numbers 
     1.0000   1.0000   1.0000   1.0000   1.0000   0.0000   0.0000   0.0000
     0.0000   0.0000

          k =-0.1429-1.0000 0.0000 (   276 PWs)   bands (ev):

     7.9158   8.3420  10.8318  10.9849  11.2344  14.7517  19.8746  24.3735
    24.8149  31.9927

     occupation numbers 
     1.0000   1.0000   1.0000   1.0000   1.0000   0.0000   0.0000   0.0000
     0.0000   0.0000

          k =-0.2857 0.5714 0.0000 (   276 PWs)   bands (ev):

     7.3676   8.9470   9.5410  10.4785  10.5291  11.6379  24.6144  25.3846
    29.9566  36.8969

     occupation numbers 
     1.0000   1.0000   1.0000   1.0000   1.0000   1.0000   0.0000   0.0000
     0.0000   0.0000

          k = 0.6429-0.3571 0.9286 (   276 PWs)   bands (ev):

     8.0913   8.9686   9.3681  10.3908  10.7936  12.5688  21.7454  24.9941
    28.3178  37.1940

     occupation numbers 
     1.0000   1.0000   1.0000   1.0000   1.0000   0.7432   0.0000   0.0000
     0.0000   0.0000

          k = 0.5714-0.2857 0.8571 (   276 PWs)   bands (ev):

     8.4473   8.9954   9.3853  10.2932  10.9746  14.0115  18.9382  25.2645
    26.9761  36.9992

     occupation numbers 
     1.0000   1.0000   1.0000   1.0000   1.0000   0.0000   0.0000   0.0000
     0.0000   0.0000

          k = 0.5000-0.2143 0.7857 (   276 PWs)   bands (ev):

     8.5415   8.9451   9.4880  10.2441  11.0332  15.3771  17.1197  25.7970
    26.0892  36.9124

     occupation numbers 
     1.0000   1.0000   1.0000   1.0000   1.0000   0.0000   0.0000   0.0000
     0.0000   0.0000

          k = 0.7143-0.2857 1.0000 (   279 PWs)   bands (ev):

     8.1115   8.7457   9.6017  10.6963  10.8630  12.7643  23.2823  24.1695
    25.8226  35.9571

     occupation numbers 
     1.0000   1.0000   1.0000   1.0000   1.0000   0.0327   0.0000   0.0000
     0.0000   0.0000

          k = 0.6429-0.2143 0.9286 (   278 PWs)   bands (ev):

     8.4315   8.8038   9.4810  10.5718  11.0310  14.3103  20.6840  23.9925
    24.4169  36.6768

     occupation numbers 
     1.0000   1.0000   1.0000   1.0000   1.0000   0.0000   0.0000   0.0000
     0.0000   0.0000

          k = 0.5714-0.1429 0.8571 (   275 PWs)   bands (ev):

     8.6406   8.8359   9.4010  10.4473  11.0860  16.2429  18.1598  23.2687
    24.5891  37.0694

     occupation numbers 
     1.0000   1.0000   1.0000   1.0000   1.0000   0.0000   0.0000   0.0000
     0.0000   0.0000

          k = 0.5000-0.0714 0.7857 (   274 PWs)   bands (ev):

     8.7373   8.8913   9.2561  10.4179  11.0183  15.6935  18.8346  22.5527
    25.5114  37.6520

     occupation numbers 
     1.0000   1.0000   1.0000   1.0000   1.0000   0.0000   0.0000   0.0000
     0.0000   0.0000

          k = 0.4286 0.0000 0.7143 (   275 PWs)   bands (ev):

     8.5641   9.0175   9.1403  10.4628  10.8670  13.9122  21.1158  22.5995
    26.7655  38.4037

     occupation numbers 
     1.0000   1.0000   1.0000   1.0000   1.0000   0.0000   0.0000   0.0000
     0.0000   0.0000

          k = 0.7143-0.1429 1.0000 (   275 PWs)   bands (ev):

     8.2278   8.6054   9.9352  10.7664  11.1307  14.6592  22.1805  22.4139
    23.4465  35.3993

     occupation numbers 
     1.0000   1.0000   1.0000   1.0000   1.0000   0.0000   0.0000   0.0000
     0.0000   0.0000

          k = 0.6429-0.0714 0.9286 (   276 PWs)   bands (ev):

     8.4059   8.7264   9.7104  10.6127  11.1837  16.4971  20.0883  21.1817
    23.5393  36.3807

     occupation numbers 
     1.0000   1.0000   1.0000   1.0000   1.0000   0.0000   0.0000   0.0000
     0.0000   0.0000

          k = 0.5714 0.0000 0.8571 (   274 PWs)   bands (ev):

     8.5935   8.8694   9.4278  10.4926  11.1280  17.7298  18.2403  20.9612
    24.3464  37.0293

     occupation numbers 
     1.0000   1.0000   1.0000   1.0000   1.0000   0.0000   0.0000   0.0000
     0.0000   0.0000

          k =-0.2857-1.0000-0.0000 (   276 PWs)   bands (ev):

     8.2082   8.5553  10.1082  10.7546  11.2346  16.1360  20.1725  22.1074
    23.1788  35.2076

     occupation numbers 
     1.0000   1.0000   1.0000   1.0000   1.0000   0.0000   0.0000   0.0000
     0.0000   0.0000

          k = 0.5714-0.1429 1.0000 (   274 PWs)   bands (ev):

     8.5624   8.9468   9.3156  10.5208  11.1285  16.0780  20.2168  21.9616
    23.0883  39.2249

     occupation numbers 
     1.0000   1.0000   1.0000   1.0000   1.0000   0.0000   0.0000   0.0000
     0.0000   0.0000

          k = 0.5000-0.0714 0.9286 (   272 PWs)   bands (ev):

     8.5938   9.0793   9.1997  10.4674  11.1829  18.0011  18.3835  21.9984
    22.2726  39.7638

     occupation numbers 
     1.0000   1.0000   1.0000   1.0000   1.0000   0.0000   0.0000   0.0000
     0.0000   0.0000

          k =-0.4286-1.0000 0.0000 (   276 PWs)   bands (ev):

     8.4991   8.9199   9.4419  10.5127  11.2339  17.8891  19.8986  20.7314
    21.8098  39.0274

     occupation numbers 
     1.0000   1.0000   1.0000   1.0000   1.0000   0.0000   0.0000   0.0000
     0.0000   0.0000

     the Fermi energy is    12.6322 ev

!    total energy              =    -213.09224092 Ry
     total all-electron energy =     -3309.972007 Ry
     estimated scf accuracy    <          3.5E-10 Ry
     smearing contrib. (-TS)   =       0.00007342 Ry
     internal energy E=F+TS    =    -213.09231434 Ry

     The total energy is F=E-TS. E is the sum of the following terms:
     one-electron contribution =     -28.04099064 Ry
     hartree contribution      =      30.64012958 Ry
     xc contribution           =     -44.63383441 Ry
     ewald contribution        =     -81.20902241 Ry
     one-center paw contrib.   =     -89.84859645 Ry
      -> PAW hartree energy AE =      97.74892162 Ry
      -> PAW hartree energy PS =     -97.04661097 Ry
      -> PAW xc energy AE      =    -134.89257855 Ry
      -> PAW xc energy PS      =      44.34167145 Ry
      -> total E_H with PAW    =      31.34244023 Ry
      -> total E_XC with PAW   =    -135.18474152 Ry

     convergence has been achieved in   6 iterations

     Writing all to output data dir ./tmp/cu_fcc.save/ :
     XML data file, charge density, pseudopotentials, collected wavefunctions

     init_run     :      0.21s CPU      0.23s WALL (       1 calls)
     electrons    :      0.82s CPU      0.93s WALL (       1 calls)

     Called by init_run:
     wfcinit      :      0.03s CPU      0.04s WALL (       1 calls)
     wfcinit:atom :      0.00s CPU      0.00s WALL (     104 calls)
     wfcinit:wfcr :      0.03s CPU      0.04s WALL (     104 calls)
     potinit      :      0.10s CPU      0.11s WALL (       1 calls)
     hinit0       :      0.07s CPU      0.07s WALL (       1 calls)

     Called by electrons:
     c_bands      :      0.47s CPU      0.56s WALL (       7 calls)
     sum_band     :      0.10s CPU      0.12s WALL (       7 calls)
     v_of_rho     :      0.01s CPU      0.01s WALL (       7 calls)
     v_h          :      0.00s CPU      0.00s WALL (       7 calls)
     v_xc         :      0.01s CPU      0.01s WALL (       7 calls)
     newd         :      0.02s CPU      0.03s WALL (       7 calls)
     PAW_pot      :      0.26s CPU      0.27s WALL (       7 calls)
     mix_rho      :      0.00s CPU      0.00s WALL (       7 calls)

     Called by c_bands:
     init_us_2    :      0.02s CPU      0.02s WALL (    1560 calls)
     cegterg      :      0.45s CPU      0.52s WALL (     728 calls)

     Called by sum_band:
     sum_band:wei :      0.00s CPU      0.00s WALL (       7 calls)
     sum_band:loo :      0.07s CPU      0.09s WALL (       7 calls)
     sum_band:buf :      0.00s CPU      0.00s WALL (     728 calls)
     sum_band:ini :      0.01s CPU      0.01s WALL (     728 calls)
     sum_band:cal :      0.00s CPU      0.00s WALL (     728 calls)
     sum_band:bec :      0.00s CPU      0.00s WALL (     728 calls)
     addusdens    :      0.03s CPU      0.03s WALL (       7 calls)
                                        0.00s GPU  (       7 calls)
     addusd:skk   :      0.00s CPU      0.00s WALL (       7 calls)
                                        0.00s GPU  (       7 calls)

     Called by *egterg:
     cdiaghg      :      0.07s CPU      0.08s WALL (    2271 calls)
     cegterg:over :      0.01s CPU      0.01s WALL (    1647 calls)
     cegterg:upda :      0.01s CPU      0.01s WALL (    1647 calls)
     cegterg:last :      0.01s CPU      0.01s WALL (    1303 calls)
     h_psi        :      0.35s CPU      0.41s WALL (    2479 calls)
     s_psi        :      0.01s CPU      0.01s WALL (    2479 calls)
     g_psi        :      0.00s CPU      0.00s WALL (    1647 calls)

     Called by h_psi:
     h_psi:calbec :      0.01s CPU      0.01s WALL (    2479 calls)
     vloc_psi     :      0.32s CPU      0.38s WALL (    2479 calls)
                                        0.00s GPU  (    2479 calls)
     add_vuspsi   :      0.01s CPU      0.01s WALL (    2479 calls)

     General routines
     calbec       :      0.01s CPU      0.02s WALL (    3207 calls)
     fft          :      0.02s CPU      0.02s WALL (      90 calls)
     ffts         :      0.06s CPU      0.06s WALL (      14 calls)
     fftw         :      0.32s CPU      0.38s WALL (   44866 calls)
     interpolate  :      0.06s CPU      0.06s WALL (       7 calls)

     Parallel routines

     PAW routines
     PAW_pot      :      0.26s CPU      0.27s WALL (       7 calls)
     PAW_symme    :      0.00s CPU      0.00s WALL (      14 calls)

     PWSCF        :      1.07s CPU      1.21s WALL


   This run was terminated on:   2:55:33   6Mar2026            

=------------------------------------------------------------------------------=
   JOB DONE.
=------------------------------------------------------------------------------=
