Compiler and run-time data
===============================================================================
RASPA 3.0.16

Random seed: 758453257

Compiled as a 64-bits application
Compiler: gcc Ubuntu Clang 18.1.3 (1ubuntu1)
Compile Date = Oct 27 2025, Compile Time = 19:32:18

2026-03-06 08:49:01.826467
Simulation started on Fri, Mar 06
The start time was 08:49:00

Hostname:    3f38bf73fdc4
OS type:     Linux on x86_64
OS release:  6.17.0-14-generic
OS version:  #14~24.04.1-Ubuntu SMP PREEMPT_DYNAMIC Thu Jan 15 15:52:10 UTC 2


Mutual consistent basic set of units:
===============================================================================

Unit of temperature: 1 [K]
Unit of length:      1e-10 [m]
Unit of time:        1e-12 [s]
Unit of mass:        1.6605402e-27 [kg]
Unit of charge:      1.60217733e-19 [C/particle]


Boltzmann constant (internal units):          0.8314464919307584 [-]
represents conversion from energy (internal units) to temperature (in Kelvin)

Derived units and their conversion factors:
===============================================================================

Unit of energy:                           1.6605402000000002e-23 [J]
Unit of energy:                           10.000008872307538 [J.mol⁻¹]
Unit of velocity:                         100 [m.s⁻¹]
Unit of force:                            1.6605402000000002e-13 [N]
Unit of diffusion:                        1e-08 [m².s⁻¹]
Unit of acceleration:                     1e-08 [m².s⁻¹]
Unit of torque:                           1.6605402000000002e-23 [N.m]
Unit of pressure:                         16605402 [Pa]
Unit of volume:                           1e-30 [m³]
Unit of density:                          1660.5402 [kg.m⁻³]
Unit of dynamic viscosity:                1.6605401999999997e-05 [N.s.m⁻²]
Unit of enthalpy:                         1.6605402000000002e-23 [J]
Unit of polarizability:                   1.5458657349975198e-35 [-]
Unit of Coulomb potential:                167101.08000665612 [K]
Unit of dielectric constant:              1.5458657349975193e-05 [s².C².kg⁻¹.m⁻³]
Unit of dipole moment:                    1.60217733e-29 [C.m]
Unit of Debye:                            4.803206799099162 [C.m]
Unit of electric potential:               0.00010364272224473431 [V]
Unit of electric field:                   1036427.222447343 [V.m⁻¹]
Unit of isothermal compressibility:       6.02213665167516e-08 [Pa⁻¹]
Unit of heat capacity:                    10.000008872307538 [J.mol⁻¹.K⁻¹]
Unit of volumetric expansion coefficient: 1 [K⁻¹]


Internal conversion factors:
===============================================================================

Energy (internal units) to Kelvin:      1.202724284692786 [-]
Kelvin to energy (internal units):      0.8314457542157567 [-]


System definitions
===============================================================================

Temperature:          298 [K]
Beta:                 0.004035983951527738 [-]
Pressure:             10000 [Pa]
Helium void fraction: 0.64 [-]

Box:      20.81000   0.00000   0.00000
           0.00000  20.81000   0.00000
           0.00000   0.00000  20.81000
Lengths:  20.81000  20.81000  20.81000
Angles:   90.00000  90.00000  90.00000
Rectangular boundary conditions
Perpendicular widths:   20.81000  20.81000  20.81000




Property measurement settings
===============================================================================




Pseudo-atoms
===============================================================================

  0 - Zr01     framework-atom: true
  1 - O001     framework-atom: true
  2 - O002     framework-atom: true
  3 - C001     framework-atom: true
  4 - C002     framework-atom: true
  5 - C003     framework-atom: true
  6 - H003     framework-atom: true
  7 - C_co2    framework-atom: false
  8 - O_co2    framework-atom: false

  0 - Zr01     mass: 91.22400, charge:  0.00000
  1 - O001     mass: 15.99940, charge:  0.00000
  2 - O002     mass: 15.99940, charge:  0.00000
  3 - C001     mass: 12.01070, charge:  0.00000
  4 - C002     mass: 12.01070, charge:  0.00000
  5 - C003     mass: 12.01070, charge:  0.00000
  6 - H003     mass:  1.00794, charge:  0.00000
  7 - C_co2    mass: 12.00000, charge:  0.65120
  8 - O_co2    mass: 15.99940, charge: -0.32560

  0 - Zr01     polarizability:  0.00000
  1 - O001     polarizability:  0.00000
  2 - O002     polarizability:  0.00000
  3 - C001     polarizability:  0.00000
  4 - C002     polarizability:  0.00000
  5 - C003     polarizability:  0.00000
  6 - H003     polarizability:  0.00000
  7 - C_co2    polarizability:  0.00000
  8 - O_co2    polarizability:  0.00000


Force field status
===============================================================================

Cutoff Framework-Molecule VDW:  12.00000 [Å]
Cutoff Molecule-Molecule VDW:   12.00000 [Å]
Cutoff Coulomb:                 auto
Overlap-criteria VDW:           1.000000e+06 [K]

Zr01     - Zr01     Lennard-Jones p₀/kʙ:  34.72200 [K], p₁:  2.78300 [Å]
                                  shift:  -0.02161 [K], tailcorrections: false
Zr01     - O001     Lennard-Jones p₀/kʙ:  40.89188 [K], p₁:  2.90808 [Å]
                                  shift:  -0.03312 [K], tailcorrections: false
Zr01     - O002     Lennard-Jones p₀/kʙ:  40.89188 [K], p₁:  2.90808 [Å]
                                  shift:  -0.03312 [K], tailcorrections: false
Zr01     - C001     Lennard-Jones p₀/kʙ:  40.76350 [K], p₁:  3.12799 [Å]
                                  shift:  -0.05113 [K], tailcorrections: false
Zr01     - C002     Lennard-Jones p₀/kʙ:  40.76350 [K], p₁:  3.12799 [Å]
                                  shift:  -0.05113 [K], tailcorrections: false
Zr01     - C003     Lennard-Jones p₀/kʙ:  40.76350 [K], p₁:  3.12799 [Å]
                                  shift:  -0.05113 [K], tailcorrections: false
Zr01     - H003     Lennard-Jones p₀/kʙ:  16.29681 [K], p₁:  2.81471 [Å]
                                  shift:  -0.01085 [K], tailcorrections: false
Zr01     - C_co2    Lennard-Jones p₀/kʙ:  32.23870 [K], p₁:  2.76400 [Å]
                                  shift:  -0.01925 [K], tailcorrections: false
Zr01     - O_co2    Lennard-Jones p₀/kʙ:  54.54052 [K], p₁:  2.90000 [Å]
                                  shift:  -0.04345 [K], tailcorrections: false
O001     - O001     Lennard-Jones p₀/kʙ:  48.15810 [K], p₁:  3.03315 [Å]
                                  shift:  -0.05022 [K], tailcorrections: false
O001     - O002     Lennard-Jones p₀/kʙ:  48.15810 [K], p₁:  3.03315 [Å]
                                  shift:  -0.05022 [K], tailcorrections: false
O001     - C001     Lennard-Jones p₀/kʙ:  48.00691 [K], p₁:  3.25307 [Å]
                                  shift:  -0.07618 [K], tailcorrections: false
O001     - C002     Lennard-Jones p₀/kʙ:  48.00691 [K], p₁:  3.25307 [Å]
                                  shift:  -0.07618 [K], tailcorrections: false
O001     - C003     Lennard-Jones p₀/kʙ:  48.00691 [K], p₁:  3.25307 [Å]
                                  shift:  -0.07618 [K], tailcorrections: false
O001     - H003     Lennard-Jones p₀/kʙ:  19.19265 [K], p₁:  2.93979 [Å]
                                  shift:  -0.01659 [K], tailcorrections: false
O001     - C_co2    Lennard-Jones p₀/kʙ:  37.96731 [K], p₁:  2.88908 [Å]
                                  shift:  -0.02957 [K], tailcorrections: false
O001     - O_co2    Lennard-Jones p₀/kʙ:  64.23202 [K], p₁:  3.02508 [Å]
                                  shift:  -0.06592 [K], tailcorrections: false
O002     - O002     Lennard-Jones p₀/kʙ:  48.15810 [K], p₁:  3.03315 [Å]
                                  shift:  -0.05022 [K], tailcorrections: false
O002     - C001     Lennard-Jones p₀/kʙ:  48.00691 [K], p₁:  3.25307 [Å]
                                  shift:  -0.07618 [K], tailcorrections: false
O002     - C002     Lennard-Jones p₀/kʙ:  48.00691 [K], p₁:  3.25307 [Å]
                                  shift:  -0.07618 [K], tailcorrections: false
O002     - C003     Lennard-Jones p₀/kʙ:  48.00691 [K], p₁:  3.25307 [Å]
                                  shift:  -0.07618 [K], tailcorrections: false
O002     - H003     Lennard-Jones p₀/kʙ:  19.19265 [K], p₁:  2.93979 [Å]
                                  shift:  -0.01659 [K], tailcorrections: false
O002     - C_co2    Lennard-Jones p₀/kʙ:  37.96731 [K], p₁:  2.88908 [Å]
                                  shift:  -0.02957 [K], tailcorrections: false
O002     - O_co2    Lennard-Jones p₀/kʙ:  64.23202 [K], p₁:  3.02508 [Å]
                                  shift:  -0.06592 [K], tailcorrections: false
C001     - C001     Lennard-Jones p₀/kʙ:  47.85620 [K], p₁:  3.47299 [Å]
                                  shift:  -0.11243 [K], tailcorrections: false
C001     - C002     Lennard-Jones p₀/kʙ:  47.85620 [K], p₁:  3.47299 [Å]
                                  shift:  -0.11243 [K], tailcorrections: false
C001     - C003     Lennard-Jones p₀/kʙ:  47.85620 [K], p₁:  3.47299 [Å]
                                  shift:  -0.11243 [K], tailcorrections: false
C001     - H003     Lennard-Jones p₀/kʙ:  19.13240 [K], p₁:  3.15970 [Å]
                                  shift:  -0.02550 [K], tailcorrections: false
C001     - C_co2    Lennard-Jones p₀/kʙ:  37.84811 [K], p₁:  3.10900 [Å]
                                  shift:  -0.04577 [K], tailcorrections: false
C001     - O_co2    Lennard-Jones p₀/kʙ:  64.03037 [K], p₁:  3.24499 [Å]
                                  shift:  -0.10011 [K], tailcorrections: false
C002     - C002     Lennard-Jones p₀/kʙ:  47.85620 [K], p₁:  3.47299 [Å]
                                  shift:  -0.11243 [K], tailcorrections: false
C002     - C003     Lennard-Jones p₀/kʙ:  47.85620 [K], p₁:  3.47299 [Å]
                                  shift:  -0.11243 [K], tailcorrections: false
C002     - H003     Lennard-Jones p₀/kʙ:  19.13240 [K], p₁:  3.15970 [Å]
                                  shift:  -0.02550 [K], tailcorrections: false
C002     - C_co2    Lennard-Jones p₀/kʙ:  37.84811 [K], p₁:  3.10900 [Å]
                                  shift:  -0.04577 [K], tailcorrections: false
C002     - O_co2    Lennard-Jones p₀/kʙ:  64.03037 [K], p₁:  3.24499 [Å]
                                  shift:  -0.10011 [K], tailcorrections: false
C003     - C003     Lennard-Jones p₀/kʙ:  47.85620 [K], p₁:  3.47299 [Å]
                                  shift:  -0.11243 [K], tailcorrections: false
C003     - H003     Lennard-Jones p₀/kʙ:  19.13240 [K], p₁:  3.15970 [Å]
                                  shift:  -0.02550 [K], tailcorrections: false
C003     - C_co2    Lennard-Jones p₀/kʙ:  37.84811 [K], p₁:  3.10900 [Å]
                                  shift:  -0.04577 [K], tailcorrections: false
C003     - O_co2    Lennard-Jones p₀/kʙ:  64.03037 [K], p₁:  3.24499 [Å]
                                  shift:  -0.10011 [K], tailcorrections: false
H003     - H003     Lennard-Jones p₀/kʙ:   7.64893 [K], p₁:  2.84642 [Å]
                                  shift:  -0.00545 [K], tailcorrections: false
H003     - C_co2    Lennard-Jones p₀/kʙ:  15.13127 [K], p₁:  2.79571 [Å]
                                  shift:  -0.00968 [K], tailcorrections: false
H003     - O_co2    Lennard-Jones p₀/kʙ:  25.59866 [K], p₁:  2.93171 [Å]
                                  shift:  -0.02177 [K], tailcorrections: false
C_co2    - C_co2    Lennard-Jones p₀/kʙ:  29.93300 [K], p₁:  2.74500 [Å]
                                  shift:  -0.01715 [K], tailcorrections: false
C_co2    - O_co2    Lennard-Jones p₀/kʙ:  50.63981 [K], p₁:  2.88100 [Å]
                                  shift:  -0.03878 [K], tailcorrections: false
O_co2    - O_co2    Lennard-Jones p₀/kʙ:  85.67100 [K], p₁:  3.01700 [Å]
                                  shift:  -0.08653 [K], tailcorrections: false

Ewald precision: 1e-06
Ewald alpha: 0.3077428496806629
Ewald k-vectors: 7 7 7


Component definitions
===============================================================================

Framework 0 [UIO-66]

    Box:      20.81000   0.00000   0.00000
               0.00000  20.81000   0.00000
               0.00000   0.00000  20.81000
    Lengths:  20.81000  20.81000  20.81000
    Angles:   90.00000  90.00000  90.00000
    Perpendicular widths:   20.81000  20.81000  20.81000

    number Of Atoms:                   440 [-]
    mass:                       6640.11584 [amu]
      0: Zr01   position  0.37960  0.50000  0.50000, charge  0.00000
      1: O001   position  0.44180  0.55820  0.55820, charge  0.00000
      2: O002   position  0.32450  0.50000  0.40700, charge  0.00000
      3: C001   position  0.34660  0.50000  0.34660, charge  0.00000
      4: C002   position  0.29930  0.50000  0.29930, charge  0.00000
      5: C003   position  0.22990  0.50000  0.32200, charge  0.00000
      6: H003   position  0.21950  0.50000  0.36550, charge  0.00000
    use charge from: pseudo-atoms
    net charge:                      0.00000 [e]
    smallest charge:                 0.00000 [e]
    largest charge:                  0.00000 [e]
    number of bonds: 0

Component 0 [CO2]

    Type: Adsorbate

    Critical temperature:  304.1282 [K]
    Critical pressure:     7377300 [Pa]
    Acentric factor:       0.22394 [-]

    Mol-fraction:                 1 [-]
    Swappable:                   true

    Mass:                         43.9988 [-]
    Fugacity:                     10000 [Pa]
    Fugacity coefficient:         1 [-]
    Bulk fluid density:           0.1776756989683306 [-]
    Compressibility:              0.9994526641749696 [-]
    Excess molecules:             0.014026018478734106 [-]

    Number Of Atoms:              3
    CBMC starting bead:           0
    Ideal gas Rosenbluth weight:  1.00000000
      0: O_co2  position  0.00000 -0.00000  1.14900, charge -0.32560
      1: C_co2  position  0.00000 -0.00000  0.00000, charge  0.65120
      2: O_co2  position  0.00000 -0.00000 -1.14900, charge -0.32560
    Diagonalized inertia-vector:      42.24484776 42.24484776 0.00000000
    Translational degrees of freedom: 3
    Rotational degrees of freedom:    2
    Shape of the molecule is: 'Linear'
    Net-charge:        0.00000000 [e]

    Move probabilities:
    Hybrid MC:                     0.000000 [-]
    Parallel tempering:            0.000000 [-]
    Widom (CB/CFCMC):              0.000000 [-]
    Widom (CFCMC):                 0.000000 [-]
    Widom:                         0.285714 [-]
    Gibbs swap (CFCMC):            0.000000 [-]
    Gibbs swap (CBMC):             0.000000 [-]
    Gibbs volume:                  0.000000 [-]
    Swap (CB/CFCMC):               0.000000 [-]
    Swap (CFCMC):                  0.000000 [-]
    Swap (CBMC):                   0.285714 [-]
    Swap:                          0.000000 [-]
    Identity change (CBMC):        0.000000 [-]
    Partial reinsertion (CBMC):    0.000000 [-]
    Reinsertion (CBMC):            0.142857 [-]
    Volume change:                 0.000000 [-]
    Random rotation:               0.000000 [-]
    Rotation:                      0.142857 [-]
    Random translation:            0.000000 [-]
    Translation:                   0.142857 [-]

    number of blocking-pockets: 0

    molecule is modelled as 'rigid'





Number of pseudo-atoms
===============================================================================

Component   0 (CO2)
-------------------------------------------------------------------------------
    index   0 (Zr01): 0 atoms
    index   1 (O001): 0 atoms
    index   2 (O002): 0 atoms
    index   3 (C001): 0 atoms
    index   4 (C002): 0 atoms
    index   5 (C003): 0 atoms
    index   6 (H003): 0 atoms
    index   7 (C_co2): 0 atoms
    index   8 (O_co2): 0 atoms

Total number of pseudo-atoms:
-------------------------------------------------------------------------------
    index   0 (Zr01): 0 atoms
    index   1 (O001): 0 atoms
    index   2 (O002): 0 atoms
    index   3 (C001): 0 atoms
    index   4 (C002): 0 atoms
    index   5 (C003): 0 atoms
    index   6 (H003): 0 atoms
    index   7 (C_co2): 0 atoms
    index   8 (O_co2): 0 atoms




Energy status Recomputed from scratch
===============================================================================

Total potential energy/kʙ        0.000000e+00 [K]
    external field VDW/kʙ        0.000000e+00 [K]
    external field Real/kʙ       0.000000e+00 [K]
    framework-molecule VDW/kʙ    0.000000e+00 [K]
    framework-molecule Real/kʙ   0.000000e+00 [K]
    molecule-molecule VDW/kʙ     0.000000e+00 [K]
    molecule-molecule Real/kʙ    0.000000e+00 [K]
    Van der Waals (Tail)/kʙ      0.000000e+00 [K]
    Ewald Fourier/kʙ             0.000000e+00 [K]
    Ewald self/kʙ                0.000000e+00 [K]
    Ewald exclusion/kʙ           0.000000e+00 [K]
    bond/kʙ                      0.000000e+00 [K]
    Urey-Bradley/kʙ              0.000000e+00 [K]
    bend/kʙ                      0.000000e+00 [K]
    inversion bend/kʙ            0.000000e+00 [K]
    out-of-plane bend/kʙ         0.000000e+00 [K]
    torsion/kʙ                   0.000000e+00 [K]
    improper torsion/kʙ          0.000000e+00 [K]
    bond-bond/kʙ                 0.000000e+00 [K]
    bond-bend/kʙ                 0.000000e+00 [K]
    bond-torsion/kʙ              0.000000e+00 [K]
    bend-bend/kʙ                 0.000000e+00 [K]
    bend-torsion/kʙ              0.000000e+00 [K]
    intra VDW/kʙ                 0.000000e+00 [K]
    intra Coulombic/kʙ           0.000000e+00 [K]
    polarization/kʙ              0.000000e+00 [K]
    dU/dlambda VDW/kʙ            0.000000e+00 [K]
    dU/dlambda Real/kʙ           0.000000e+00 [K]
    dU/dlambda Ewald/kʙ          0.000000e+00 [K]





Initialization: Current cycle: 0 out of 1000
===============================================================================

Box:      20.81000   0.00000   0.00000
           0.00000  20.81000   0.00000
           0.00000   0.00000  20.81000
Lengths:  20.81000  20.81000  20.81000
Angles:   90.00000  90.00000  90.00000
Rectangular boundary conditions
Perpendicular widths:   20.81000  20.81000  20.81000


Net charge:   0.00000000
Cutoff Coulomb:  10.40500 [Å]
Ewald alpha: 0.3077428496806629
Ewald k-vectors: 7 7 7


component   0 (CO2) lambda:  0 occupancy:  1 (1.000000)
    net charge:   0.00000000 [e]

Amount of molecules per component:
-------------------------------------------------------------------------------
Component 0 (CO2)
    absolute adsorption:  1.000000e+00 molecules
                          1.000000e+00 molecules/uc
                          1.505998e-01 mol/kg-framework
                          6.626210e+00 mg/g-framework
    excess adsorption:    9.859740e-01 molecules
                          9.859740e-01 molecules/uc
                          1.484875e-01 mol/kg-framework
                          6.533270e+00 mg/g-framework

Total potential energy/kʙ       -2.826802e+03 [K]
-------------------------------------------------------------------------------
    external field VDW/kʙ        0.000000e+00 [K]
    external field Real/kʙ       0.000000e+00 [K]
    framework-molecule VDW/kʙ   -2.826727e+03 [K]
    framework-molecule Real/kʙ   0.000000e+00 [K]
    molecule-molecule VDW/kʙ     1.602351e-15 [K]
    molecule-molecule Real/kʙ    2.670584e-16 [K]
    Van der Waals (Tail)/kʙ      0.000000e+00 [K]
    Ewald Fourier/kʙ             9.976625e+01 [K]
    Ewald self/kʙ               -1.845493e+04 [K]
    Ewald exclusion/kʙ           1.835509e+04 [K]
    polarization/kʙ              0.000000e+00 [K]
    dU/dlambda VDW/kʙ            0.000000e+00 [K]
    dU/dlambda Real/kʙ           0.000000e+00 [K]
    dU/dlambda Ewald/kʙ          0.000000e+00 [K]


Initialization: Current cycle: 500 out of 1000
===============================================================================

Box:      20.81000   0.00000   0.00000
           0.00000  20.81000   0.00000
           0.00000   0.00000  20.81000
Lengths:  20.81000  20.81000  20.81000
Angles:   90.00000  90.00000  90.00000
Rectangular boundary conditions
Perpendicular widths:   20.81000  20.81000  20.81000


Net charge:   0.00000000
Cutoff Coulomb:  10.40500 [Å]
Ewald alpha: 0.3077428496806629
Ewald k-vectors: 7 7 7


component   0 (CO2) lambda:  0 occupancy:  1 (1.000000)
    net charge:   0.00000000 [e]

Amount of molecules per component:
-------------------------------------------------------------------------------
Component 0 (CO2)
    absolute adsorption:  1.000000e+00 molecules
                          1.000000e+00 molecules/uc
                          1.505998e-01 mol/kg-framework
                          6.626210e+00 mg/g-framework
    excess adsorption:    9.859740e-01 molecules
                          9.859740e-01 molecules/uc
                          1.484875e-01 mol/kg-framework
                          6.533270e+00 mg/g-framework

Total potential energy/kʙ       -2.041348e+03 [K]
-------------------------------------------------------------------------------
    external field VDW/kʙ        0.000000e+00 [K]
    external field Real/kʙ       0.000000e+00 [K]
    framework-molecule VDW/kʙ   -2.041621e+03 [K]
    framework-molecule Real/kʙ   0.000000e+00 [K]
    molecule-molecule VDW/kʙ    -3.808253e-13 [K]
    molecule-molecule Real/kʙ   -9.718570e-12 [K]
    Van der Waals (Tail)/kʙ      0.000000e+00 [K]
    Ewald Fourier/kʙ             1.001141e+02 [K]
    Ewald self/kʙ               -1.845493e+04 [K]
    Ewald exclusion/kʙ           1.835509e+04 [K]
    polarization/kʙ              0.000000e+00 [K]
    dU/dlambda VDW/kʙ            0.000000e+00 [K]
    dU/dlambda Real/kʙ           0.000000e+00 [K]
    dU/dlambda Ewald/kʙ          0.000000e+00 [K]


Current cycle: 0 out of 2000
===============================================================================

Box:      20.81000   0.00000   0.00000  Average:  20.81000   0.00000   0.00000
           0.00000  20.81000   0.00000             0.00000  20.81000   0.00000
           0.00000   0.00000  20.81000             0.00000   0.00000  20.81000
Lengths:  20.81000  20.81000  20.81000  Average:  20.81000  20.81000  20.81000
Angles:   90.00000  90.00000  90.00000  Average:  90.00000  90.00000  90.00000
Rectangular boundary conditions

Net charge:   0.00000000
Cutoff Coulomb:  10.40500 [Å]
Ewald alpha: 0.3077428496806629
Ewald k-vectors: 7 7 7


component 0 (CO2) lambda:  0 occupancy:  1 (1.000000)
    net charge:   0.00000000 [e]

Amount of molecules per component:
-------------------------------------------------------------------------------
Component 0 (CO2)
    absolute adsorption: 3.000000e+00 molecules (3.000000e+00 +/- 0.000000e+00)
                         3.000000e+00 molec./uc (3.000000e+00 +/- 0.000000e+00)
                         4.517993e-01 mol/kg    (4.517993e-01 +/- 0.000000e+00)
                         1.987863e+01 mg/g      (1.987863e+01 +/- 0.000000e+00)
    excess adsorption:   2.985974e+00 molecules (2.985974e+00 +/- 0.000000e+00)
                         2.985974e+00 molec./uc (2.985974e+00 +/- 0.000000e+00)
                         4.496870e-01 mol/kg    (4.496870e-01 +/- 0.000000e+00)
                         1.978569e+01 mg/g      (1.978569e+01 +/- 0.000000e+00)

Total potential energy/kʙ  -7.896016e+03 (-7.896016e+03 +/- 0.000000e+00) [K]
-------------------------------------------------------------------------------
ExternalField-molecule
    Van der Waals/kʙ        0.000000e+00 ( 0.000000e+00 +/- 0.000000e+00) [K]
Framework-molecule
    Van der Waals/kʙ       -7.809071e+03 (-7.809071e+03 +/- 0.000000e+00) [K]
    Van der Waals (Tail)/kʙ 0.000000e+00 ( 0.000000e+00 +/- 0.000000e+00) [K]
    Coulombic Real/kʙ       0.000000e+00 ( 0.000000e+00 +/- 0.000000e+00) [K]
    Coulombic Fourier/kʙ    0.000000e+00 ( 0.000000e+00 +/- 0.000000e+00) [K]
Molecule-molecule
    Van der Waals/kʙ       -2.240494e+02 (-2.240494e+02 +/- 0.000000e+00) [K]
    Van der Waals (Tail)/kʙ 0.000000e+00 ( 0.000000e+00 +/- 0.000000e+00) [K]
    Coulombic Real/kʙ       9.761319e+01 ( 9.761319e+01 +/- 0.000000e+00) [K]
    Coulombic Fourier/kʙ    3.949057e+01 ( 3.949057e+01 +/- 0.000000e+00) [K]
    Molecule Intra/kʙ       0.000000e+00 ( 0.000000e+00 +/- 0.000000e+00) [K]
Polarization energy/kʙ      0.000000e+00 ( 0.000000e+00 +/- 0.000000e+00) [K]

Current cycle: 500 out of 2000
===============================================================================

Box:      20.81000   0.00000   0.00000  Average:  20.81000   0.00000   0.00000
           0.00000  20.81000   0.00000             0.00000  20.81000   0.00000
           0.00000   0.00000  20.81000             0.00000   0.00000  20.81000
Lengths:  20.81000  20.81000  20.81000  Average:  20.81000  20.81000  20.81000
Angles:   90.00000  90.00000  90.00000  Average:  90.00000  90.00000  90.00000
Rectangular boundary conditions

Net charge:   0.00000000
Cutoff Coulomb:  10.40500 [Å]
Ewald alpha: 0.3077428496806629
Ewald k-vectors: 7 7 7


component 0 (CO2) lambda:  0 occupancy:  1 (1.000000)
    net charge:   0.00000000 [e]

Amount of molecules per component:
-------------------------------------------------------------------------------
Component 0 (CO2)
    absolute adsorption: 0.000000e+00 molecules (2.151697e+00 +/- 0.000000e+00)
                         0.000000e+00 molec./uc (2.151697e+00 +/- 0.000000e+00)
                         0.000000e+00 mol/kg    (3.240450e-01 +/- 0.000000e+00)
                         0.000000e+00 mg/g      (1.425759e+01 +/- 0.000000e+00)
    excess adsorption:   -1.402602e-02 molecules (2.137671e+00 +/- 0.000000e+00)
                         -1.402602e-02 molec./uc (2.137671e+00 +/- 0.000000e+00)
                         -2.112315e-03 mol/kg    (3.219327e-01 +/- 0.000000e+00)
                         -9.293934e-02 mg/g      (1.416465e+01 +/- 0.000000e+00)

Total potential energy/kʙ   0.000000e+00 (-5.349948e+03 +/- 0.000000e+00) [K]
-------------------------------------------------------------------------------
ExternalField-molecule
    Van der Waals/kʙ        0.000000e+00 ( 0.000000e+00 +/- 0.000000e+00) [K]
Framework-molecule
    Van der Waals/kʙ        0.000000e+00 (-5.310464e+03 +/- 0.000000e+00) [K]
    Van der Waals (Tail)/kʙ 0.000000e+00 ( 0.000000e+00 +/- 0.000000e+00) [K]
    Coulombic Real/kʙ       0.000000e+00 ( 0.000000e+00 +/- 0.000000e+00) [K]
    Coulombic Fourier/kʙ    0.000000e+00 ( 0.000000e+00 +/- 0.000000e+00) [K]
Molecule-molecule
    Van der Waals/kʙ        0.000000e+00 (-4.992476e+01 +/- 0.000000e+00) [K]
    Van der Waals (Tail)/kʙ 0.000000e+00 ( 0.000000e+00 +/- 0.000000e+00) [K]
    Coulombic Real/kʙ       0.000000e+00 ( 6.830537e+00 +/- 0.000000e+00) [K]
    Coulombic Fourier/kʙ    0.000000e+00 ( 3.610161e+00 +/- 0.000000e+00) [K]
    Molecule Intra/kʙ       0.000000e+00 ( 0.000000e+00 +/- 0.000000e+00) [K]
Polarization energy/kʙ      0.000000e+00 ( 0.000000e+00 +/- 0.000000e+00) [K]

Current cycle: 1000 out of 2000
===============================================================================

Box:      20.81000   0.00000   0.00000  Average:  20.81000   0.00000   0.00000
           0.00000  20.81000   0.00000             0.00000  20.81000   0.00000
           0.00000   0.00000  20.81000             0.00000   0.00000  20.81000
Lengths:  20.81000  20.81000  20.81000  Average:  20.81000  20.81000  20.81000
Angles:   90.00000  90.00000  90.00000  Average:  90.00000  90.00000  90.00000
Rectangular boundary conditions

Net charge:   0.00000000
Cutoff Coulomb:  10.40500 [Å]
Ewald alpha: 0.3077428496806629
Ewald k-vectors: 7 7 7


component 0 (CO2) lambda:  0 occupancy:  1 (1.000000)
    net charge:   0.00000000 [e]

Amount of molecules per component:
-------------------------------------------------------------------------------
Component 0 (CO2)
    absolute adsorption: 4.000000e+00 molecules (2.028971e+00 +/- 5.466077e-01)
                         4.000000e+00 molec./uc (2.028971e+00 +/- 5.466077e-01)
                         6.023991e-01 mol/kg    (3.055626e-01 +/- 8.231901e-02)
                         2.650484e+01 mg/g      (1.344439e+01 +/- 3.621937e+00)
    excess adsorption:   3.985974e+00 molecules (2.014945e+00 +/- 5.466077e-01)
                         3.985974e+00 molec./uc (2.014945e+00 +/- 5.466077e-01)
                         6.002868e-01 mol/kg    (3.034503e-01 +/- 8.231901e-02)
                         2.641190e+01 mg/g      (1.335145e+01 +/- 3.621937e+00)

Total potential energy/kʙ  -1.051152e+04 (-4.956140e+03 +/- 1.558734e+03) [K]
-------------------------------------------------------------------------------
ExternalField-molecule
    Van der Waals/kʙ        0.000000e+00 ( 0.000000e+00 +/- 0.000000e+00) [K]
Framework-molecule
    Van der Waals/kʙ       -1.051042e+04 (-4.919082e+03 +/- 1.554530e+03) [K]
    Van der Waals (Tail)/kʙ 0.000000e+00 ( 0.000000e+00 +/- 0.000000e+00) [K]
    Coulombic Real/kʙ       0.000000e+00 ( 0.000000e+00 +/- 0.000000e+00) [K]
    Coulombic Fourier/kʙ    0.000000e+00 ( 0.000000e+00 +/- 0.000000e+00) [K]
Molecule-molecule
    Van der Waals/kʙ       -8.831149e+00 (-4.351703e+01 +/- 2.843096e+01) [K]
    Van der Waals (Tail)/kʙ 0.000000e+00 ( 0.000000e+00 +/- 0.000000e+00) [K]
    Coulombic Real/kʙ       9.050363e-01 ( 3.690776e+00 +/- 2.296033e+01) [K]
    Coulombic Fourier/kʙ    6.835501e+00 ( 2.768105e+00 +/- 5.891770e+00) [K]
    Molecule Intra/kʙ       0.000000e+00 ( 0.000000e+00 +/- 0.000000e+00) [K]
Polarization energy/kʙ      0.000000e+00 ( 0.000000e+00 +/- 0.000000e+00) [K]

Current cycle: 1500 out of 2000
===============================================================================

Box:      20.81000   0.00000   0.00000  Average:  20.81000   0.00000   0.00000
           0.00000  20.81000   0.00000             0.00000  20.81000   0.00000
           0.00000   0.00000  20.81000             0.00000   0.00000  20.81000
Lengths:  20.81000  20.81000  20.81000  Average:  20.81000  20.81000  20.81000
Angles:   90.00000  90.00000  90.00000  Average:  90.00000  90.00000  90.00000
Rectangular boundary conditions

Net charge:   0.00000000
Cutoff Coulomb:  10.40500 [Å]
Ewald alpha: 0.3077428496806629
Ewald k-vectors: 7 7 7


component 0 (CO2) lambda:  0 occupancy:  1 (1.000000)
    net charge:   0.00000000 [e]

Amount of molecules per component:
-------------------------------------------------------------------------------
Component 0 (CO2)
    absolute adsorption: 3.000000e+00 molecules (2.007328e+00 +/- 2.895079e-01)
                         3.000000e+00 molec./uc (2.007328e+00 +/- 2.895079e-01)
                         4.517993e-01 mol/kg    (3.023032e-01 +/- 4.359982e-02)
                         1.987863e+01 mg/g      (1.330098e+01 +/- 1.918340e+00)
    excess adsorption:   2.985974e+00 molecules (1.993302e+00 +/- 2.895079e-01)
                         2.985974e+00 molec./uc (1.993302e+00 +/- 2.895079e-01)
                         4.496870e-01 mol/kg    (3.001909e-01 +/- 4.359982e-02)
                         1.978569e+01 mg/g      (1.320804e+01 +/- 1.918340e+00)

Total potential energy/kʙ  -7.640263e+03 (-5.164416e+03 +/- 1.151821e+03) [K]
-------------------------------------------------------------------------------
ExternalField-molecule
    Van der Waals/kʙ        0.000000e+00 ( 0.000000e+00 +/- 0.000000e+00) [K]
Framework-molecule
    Van der Waals/kʙ       -7.578695e+03 (-5.118524e+03 +/- 1.133125e+03) [K]
    Van der Waals (Tail)/kʙ 0.000000e+00 ( 0.000000e+00 +/- 0.000000e+00) [K]
    Coulombic Real/kʙ       0.000000e+00 ( 0.000000e+00 +/- 0.000000e+00) [K]
    Coulombic Fourier/kʙ    0.000000e+00 ( 0.000000e+00 +/- 0.000000e+00) [K]
Molecule-molecule
    Van der Waals/kʙ       -2.655815e+02 (-5.529489e+01 +/- 5.470997e+01) [K]
    Van der Waals (Tail)/kʙ 0.000000e+00 ( 0.000000e+00 +/- 0.000000e+00) [K]
    Coulombic Real/kʙ       1.364716e+02 ( 5.605152e+00 +/- 2.619187e+01) [K]
    Coulombic Fourier/kʙ    6.754193e+01 ( 3.797355e+00 +/- 8.049522e+00) [K]
    Molecule Intra/kʙ       0.000000e+00 ( 0.000000e+00 +/- 0.000000e+00) [K]
Polarization energy/kʙ      0.000000e+00 ( 0.000000e+00 +/- 0.000000e+00) [K]


===============================================================================
                             Simulation finished!
===============================================================================

Final state after 2000 cycles
===============================================================================

Box:      20.81000   0.00000   0.00000  Average:  20.81000   0.00000   0.00000
           0.00000  20.81000   0.00000             0.00000  20.81000   0.00000
           0.00000   0.00000  20.81000             0.00000   0.00000  20.81000
Lengths:  20.81000  20.81000  20.81000  Average:  20.81000  20.81000  20.81000
Angles:   90.00000  90.00000  90.00000  Average:  90.00000  90.00000  90.00000
Rectangular boundary conditions

Net charge:   0.00000000
Cutoff Coulomb:  10.40500 [Å]
Ewald alpha: 0.3077428496806629
Ewald k-vectors: 7 7 7


component 0 (CO2) lambda:  0 occupancy:  1 (1.000000)
    net charge:   0.00000000 [e]

Amount of molecules per component:
-------------------------------------------------------------------------------
Component 0 (CO2)
    absolute adsorption: 0.000000e+00 molecules (1.956000e+00 +/- 2.357006e-01)
                         0.000000e+00 molec./uc (1.956000e+00 +/- 2.357006e-01)
                         0.000000e+00 mol/kg    (2.945732e-01 +/- 3.549646e-02)
                         0.000000e+00 mg/g      (1.296087e+01 +/- 1.561802e+00)
    excess adsorption:   -1.402602e-02 molecules (1.941974e+00 +/- 2.357006e-01)
                         -1.402602e-02 molec./uc (1.941974e+00 +/- 2.357006e-01)
                         -2.112315e-03 mol/kg    (2.924609e-01 +/- 3.549646e-02)
                         -9.293934e-02 mg/g      (1.286793e+01 +/- 1.561802e+00)

Total potential energy/kʙ   0.000000e+00 (-5.098293e+03 +/- 7.142353e+02) [K]
-------------------------------------------------------------------------------
ExternalField-molecule
    Van der Waals/kʙ        0.000000e+00 ( 0.000000e+00 +/- 0.000000e+00) [K]
Framework-molecule
    Van der Waals/kʙ        0.000000e+00 (-5.060426e+03 +/- 7.047629e+02) [K]
    Van der Waals (Tail)/kʙ 0.000000e+00 ( 0.000000e+00 +/- 0.000000e+00) [K]
    Coulombic Real/kʙ       0.000000e+00 ( 0.000000e+00 +/- 0.000000e+00) [K]
    Coulombic Fourier/kʙ    0.000000e+00 ( 0.000000e+00 +/- 0.000000e+00) [K]
Molecule-molecule
    Van der Waals/kʙ        0.000000e+00 (-4.774903e+01 +/- 2.794849e+01) [K]
    Van der Waals (Tail)/kʙ 0.000000e+00 ( 0.000000e+00 +/- 0.000000e+00) [K]
    Coulombic Real/kʙ       0.000000e+00 ( 6.247006e+00 +/- 1.539827e+01) [K]
    Coulombic Fourier/kʙ    0.000000e+00 ( 3.635555e+00 +/- 4.150324e+00) [K]
    Molecule Intra/kʙ       0.000000e+00 ( 0.000000e+00 +/- 0.000000e+00) [K]
Polarization energy/kʙ      0.000000e+00 ( 0.000000e+00 +/- 0.000000e+00) [K]


Energy statistics             |  Energy [K]   | Recomputed [K]|  Drift [K]    |
===============================================================================
Total potential energy/kʙ     | -1.271128e-09 |  0.000000e+00 | -1.271128e-09 |
    external field VDW/kʙ     |  0.000000e+00 |  0.000000e+00 |  0.000000e+00 |
    external field Real/kʙ    |  0.000000e+00 |  0.000000e+00 |  0.000000e+00 |
    framework-molecule VDW/kʙ | -1.947091e-10 |  0.000000e+00 | -1.947091e-10 |
    framework-molecule Real/kʙ|  0.000000e+00 |  0.000000e+00 |  0.000000e+00 |
    molecule-molecule VDW/kʙ  | -7.589000e-12 |  0.000000e+00 | -7.589000e-12 |
    molecule-molecule Real/kʙ | -4.133652e-12 |  0.000000e+00 | -4.133652e-12 |
    Van der Waals (Tail)/kʙ   |  0.000000e+00 |  0.000000e+00 |  0.000000e+00 |
    Ewald Fourier/kʙ          | -8.016026e-12 |  0.000000e+00 | -8.016026e-12 |
    Ewald self/kʙ             |  0.000000e+00 |  0.000000e+00 |  0.000000e+00 |
    Ewald exclusion/kʙ        | -1.056680e-09 |  0.000000e+00 | -1.056680e-09 |
    bond/kʙ                   |  0.000000e+00 |  0.000000e+00 |  0.000000e+00 |
    Urey-Bradley/kʙ           |  0.000000e+00 |  0.000000e+00 |  0.000000e+00 |
    bend/kʙ                   |  0.000000e+00 |  0.000000e+00 |  0.000000e+00 |
    inversion bend/kʙ         |  0.000000e+00 |  0.000000e+00 |  0.000000e+00 |
    out-of-plane bend/kʙ      |  0.000000e+00 |  0.000000e+00 |  0.000000e+00 |
    torsion/kʙ                |  0.000000e+00 |  0.000000e+00 |  0.000000e+00 |
    improper torsion/kʙ       |  0.000000e+00 |  0.000000e+00 |  0.000000e+00 |
    bond-bond/kʙ              |  0.000000e+00 |  0.000000e+00 |  0.000000e+00 |
    bond-bend/kʙ              |  0.000000e+00 |  0.000000e+00 |  0.000000e+00 |
    bond-torsion/kʙ           |  0.000000e+00 |  0.000000e+00 |  0.000000e+00 |
    bend-bend/kʙ              |  0.000000e+00 |  0.000000e+00 |  0.000000e+00 |
    bend-torsion/kʙ           |  0.000000e+00 |  0.000000e+00 |  0.000000e+00 |
    intra VDW/kʙ              |  0.000000e+00 |  0.000000e+00 |  0.000000e+00 |
    intra Coulombic/kʙ        |  0.000000e+00 |  0.000000e+00 |  0.000000e+00 |
    polarization/kʙ           |  0.000000e+00 |  0.000000e+00 |  0.000000e+00 |
    dU/dlambda VDW/kʙ         |  0.000000e+00 |  0.000000e+00 |  0.000000e+00 |
    dU/dlambda Real/kʙ        |  0.000000e+00 |  0.000000e+00 |  0.000000e+00 |
    dU/dlambda Ewald/kʙ       |  0.000000e+00 |  0.000000e+00 |  0.000000e+00 |
-------------------------------------------------------------------------------


Monte-Carlo moves statistics
===============================================================================

Component 0 [CO2]
    Reinsertion (CBMC)   all:                5772
    Reinsertion (CBMC)   total:              5064
    Reinsertion (CBMC)   constructed:        5040
    Reinsertion (CBMC)   accepted:           1931
    Reinsertion (CBMC)   fraction:       0.381319
    Reinsertion (CBMC)   max-change:     0.000000

    Widom                all:               11255
    Widom                total:             11255
    Widom                constructed:       11213
    Widom                accepted:              0
    Widom                fraction:       0.000000
    Widom                max-change:     0.000000

    Translation          all:                5665
    Translation          total:              1678       1631       1640
    Translation          constructed:        1678       1631       1640
    Translation          accepted:           1285       1480       1291
    Translation          fraction:       0.765793   0.907419   0.787195
    Translation          max-change:     0.666667   0.250000   0.500000

    Rotation             all:                5839
    Rotation             total:              1747       1726       1690
    Rotation             constructed:        1747       1726       1690
    Rotation             accepted:           1540       1121       1539
    Rotation             fraction:       0.881511   0.649479   0.910651
    Rotation             max-change:     0.333333   1.333333   0.250000

    Swap (CBMC)          all:               11469
    Swap (CBMC)          total:              5677       5792          0
    Swap (CBMC)          constructed:        5658       5067          0
    Swap (CBMC)          accepted:           2478       2480          0
    Swap (CBMC)          fraction:       0.436498   0.428177   0.000000
    Swap (CBMC)          max-change:     0.000000   0.000000   0.000000

    Widom insertion Rosenbluth weight statistics:
    ---------------------------------------------------------------------------
        Block[  0]  9.131867e+01
        Block[  1]  9.109822e+01
        Block[  2]  8.788398e+01
        Block[  3]  8.875793e+01
        Block[  4]  9.314362e+01
    ---------------------------------------------------------------------------
    Average Rosenbluth weight:    9.042967e+01 +/-  2.624609e+00 [-]


    Henry coefficient based on Rosenbluth weight:
    ---------------------------------------------------------------------------
        Block[  0]  3.012316e-05
        Block[  1]  3.005044e-05
        Block[  2]  2.899017e-05
        Block[  3]  2.927846e-05
        Block[  4]  3.072516e-05
    ---------------------------------------------------------------------------
    Average Henry coefficient:    2.982991e-05 +/-  8.657760e-07 [mol/kg/Pa]
    Average Henry coefficient:    1.980741e-04 +/-  5.748853e-06 [molec./uc/Pa]


    Widom insertion chemical potential  statistics:
    ---------------------------------------------------------------------------
        Block[  0] -1345.2790619392972
        Block[  1] -1344.558786985958
        Block[  2] -1333.8544251805513
        Block[  3] -1336.803199897523
        Block[  4] -1351.1757099372724
    ---------------------------------------------------------------------------
    Excess chemical potential:          -1.342364e+03 +/-  8.652401e+00 [K]
    Ideal chemical potential:           -2.513751e+03 +/-  3.515889e+01 [K]
    Total chemical potential:           -3.856115e+03 +/-  3.863358e+01 [K]
    Imposed chemical potential:         -3.852370e+03 [K]
    ---------------------------------------------------------------------------
    Excess chemical potential:          -1.116104e+01 +/-  7.194008e-02 [kJ/mol]
    Ideal chemical potential:           -2.090050e+01 +/-  2.923274e-01 [kJ/mol]
    Total chemical potential:           -3.206153e+01 +/-  3.212175e-01 [kJ/mol]
    Imposed chemical potential:         -3.203039e+01 [kJ/mol]
    ---------------------------------------------------------------------------
    Imposed fugacity:                    1.000000e+04 [Pa]
    Measured fugacity:                   9.875103e+03 +/-  1.277336e+03 [Pa]




Production run counting of the MC moves summed over systems and components
===============================================================================

Reinsertion (CBMC)                     5772 (14.4300 [%])
Widom                                 11255 (28.1375 [%])
Translation                            5665 (14.1625 [%])
Rotation                               5839 (14.5975 [%])
Swap (CBMC)                           11469 (28.6725 [%])

Production count MC-steps:            40000 [-]
               All summed:            40000 [-]
               difference:                0 [-]


Production run CPU timings of the MC moves
===============================================================================

Component 0 CO2

Widom                                 2.396282 [s]
    Ewald                             0.082932 [s]
    NonEwald                          2.298795 [s]
    Tail                              0.012232 [s]
    Overhead                          0.002323 [s]

Swap (CBMC)                           2.294151 [s]
    Deletion-Total                    1.081240 [s]
    Ewald                             0.080556 [s]
    Insertion-Total                   1.212262 [s]
    NonEwald                          2.191721 [s]
    Tail                              0.011754 [s]
    Overhead                          0.010120 [s]

Rotation                              0.283215 [s]
    Ewald                             0.046740 [s]
    ExternalField-Molecule            0.000142 [s]
    Framework-Molecule                0.228052 [s]
    Molecule-Molecule                 0.001706 [s]
    Overhead                          0.006575 [s]

Reinsertion (CBMC)                    1.837151 [s]
    Ewald                             0.046054 [s]
    NonEwald                          1.787502 [s]
    Overhead                          0.003595 [s]

Translation                           0.271849 [s]
    Ewald                             0.044705 [s]
    ExternalField-Molecule            0.000137 [s]
    Framework-Molecule                0.219021 [s]
    Molecule-Molecule                 0.001663 [s]
    Overhead                          0.006323 [s]



Property sampling                     0.019163 [s]
Energy/pressure sampling:             0.022024 [s]


Production run CPU timings of the MC moves summed over systems and components
===============================================================================


Translation                           0.271849 [s]
    Ewald                             0.044705 [s]
    ExternalField-Molecule            0.000137 [s]
    Framework-Molecule                0.219021 [s]
    Molecule-Molecule                 0.001663 [s]
    Overhead                          0.006323 [s]

Rotation                              0.283215 [s]
    Ewald                             0.046740 [s]
    ExternalField-Molecule            0.000142 [s]
    Framework-Molecule                0.228052 [s]
    Molecule-Molecule                 0.001706 [s]
    Overhead                          0.006575 [s]

Reinsertion (CBMC)                    1.837151 [s]
    Ewald                             0.046054 [s]
    NonEwald                          1.787502 [s]
    Overhead                          0.003595 [s]

Swap (CBMC)                           2.294151 [s]
    Deletion-Total                    1.081240 [s]
    Ewald                             0.080556 [s]
    Insertion-Total                   1.212262 [s]
    NonEwald                          2.191721 [s]
    Tail                              0.011754 [s]
    Overhead                          0.010120 [s]

Widom                                 2.396282 [s]
    Ewald                             0.082932 [s]
    NonEwald                          2.298795 [s]
    Tail                              0.012232 [s]
    Overhead                          0.002323 [s]

Property sampling:                    0.019163 [s]
Energy/pressure sampling:             0.022024 [s]

Production simulation time:           7.133473 [s]
                All summed:           7.123835 [s]
                  Overhead:           0.009638 [s]


Initalization simulation time:        2.384522 [s]
Equilibration simulation time:        0.000000 [s]
Production simulation time:           7.133473 [s]
Total simulation time:                9.517995 [s]


Energy averages and statistics:
===============================================================================

Framework-molecule energy:
-------------------------------------------------------------------------------

    Framework-molecule energy/kʙ 0-0 [CO2]:
    ---------------------------------------------------------------------------
        Block[  0] -5.525458e+03
        Block[  1] -4.277979e+03
        Block[  2] -4.942564e+03
        Block[  3] -5.697570e+03
        Block[  4] -4.858561e+03
        -----------------------------------------------------------------------
        Average  -5.060426e+03 +/-  7.047629e+02 [K]



Framework-molecule energy contributions per energy type:
-------------------------------------------------------------------------------

    Van der Waals energy/kʙ 0-0 [CO2]:
    ---------------------------------------------------------------------------
        Block[  0] -5.525458e+03
        Block[  1] -4.277979e+03
        Block[  2] -4.942564e+03
        Block[  3] -5.697570e+03
        Block[  4] -4.858561e+03
        -----------------------------------------------------------------------
        Average  -5.060426e+03 +/-  7.047629e+02 [K]

    VDW Tail-Correction energy/kʙ 0-0 [CO2]:
    ---------------------------------------------------------------------------
        Block[  0]  0.000000e+00
        Block[  1]  0.000000e+00
        Block[  2]  0.000000e+00
        Block[  3]  0.000000e+00
        Block[  4]  0.000000e+00
        -----------------------------------------------------------------------
        Average   0.000000e+00 +/-  0.000000e+00 [K]

    Coulomb Real energy/kʙ 0-0 [CO2]:
    ---------------------------------------------------------------------------
        Block[  0]  0.000000e+00
        Block[  1]  0.000000e+00
        Block[  2]  0.000000e+00
        Block[  3]  0.000000e+00
        Block[  4]  0.000000e+00
        -----------------------------------------------------------------------
        Average   0.000000e+00 +/-  0.000000e+00 [K]

    Coulomb Fourier energy/kʙ 0-0 [CO2]:
    ---------------------------------------------------------------------------
        Block[  0]  0.000000e+00
        Block[  1]  0.000000e+00
        Block[  2]  0.000000e+00
        Block[  3]  0.000000e+00
        Block[  4]  0.000000e+00
        -----------------------------------------------------------------------
        Average   0.000000e+00 +/-  0.000000e+00 [K]



Inter-molecular energy:
-------------------------------------------------------------------------------

    Inter-molecular energy/kʙ 0-0 [CO2-CO2]:
    ---------------------------------------------------------------------------
        Block[  0] -3.844870e+01
        Block[  1] -3.516876e+01
        Block[  2] -4.545683e+01
        Block[  3] -5.504552e+01
        Block[  4] -1.521254e+01
        -----------------------------------------------------------------------
        Average  -3.786647e+01 +/-  1.834630e+01 [K]



Inter-molecular energy contributions per energy type:
-------------------------------------------------------------------------------

    Van der Waals energy/kʙ 0-0 [CO2-CO2]:
    ---------------------------------------------------------------------------
        Block[  0] -5.523523e+01
        Block[  1] -3.624573e+01
        Block[  2] -3.392585e+01
        Block[  3] -8.395162e+01
        Block[  4] -2.938672e+01
        -----------------------------------------------------------------------
        Average  -4.774903e+01 +/-  2.794849e+01 [K]

    VDW Tail-Correction energy/kʙ 0-0 [CO2-CO2]:
    ---------------------------------------------------------------------------
        Block[  0]  0.000000e+00
        Block[  1]  0.000000e+00
        Block[  2]  0.000000e+00
        Block[  3]  0.000000e+00
        Block[  4]  0.000000e+00
        -----------------------------------------------------------------------
        Average   0.000000e+00 +/-  0.000000e+00 [K]

    Coulomb Real energy/kʙ 0-0 [CO2-CO2]:
    ---------------------------------------------------------------------------
        Block[  0]  1.177914e+01
        Block[  1]  7.697718e-01
        Block[  2] -1.201187e+01
        Block[  3]  2.062558e+01
        Block[  4]  1.007241e+01
        -----------------------------------------------------------------------
        Average   6.247006e+00 +/-  1.539827e+01 [K]

    Coulomb Fourier energy/kʙ 0-0 [CO2-CO2]:
    ---------------------------------------------------------------------------
        Block[  0]  5.007397e+00
        Block[  1]  3.072034e-01
        Block[  2]  4.808826e-01
        Block[  3]  8.280521e+00
        Block[  4]  4.101773e+00
        -----------------------------------------------------------------------
        Average   3.635555e+00 +/-  4.150324e+00 [K]

Intra-molecular energies per energy type:
-------------------------------------------------------------------------------


Kinetic Energies:
-------------------------------------------------------------------------------

    Translational Kinetic energy/kʙ
    ---------------------------------------------------------------------------
        Block[  0]  0.000000e+00
        Block[  1]  0.000000e+00
        Block[  2]  0.000000e+00
        Block[  3]  0.000000e+00
        Block[  4]  0.000000e+00
        -----------------------------------------------------------------------
        Average   0.000000e+00 +/-  0.000000e+00 [K]

    Rotational Kinetic energy/kʙ
    ---------------------------------------------------------------------------
        Block[  0]  0.000000e+00
        Block[  1]  0.000000e+00
        Block[  2]  0.000000e+00
        Block[  3]  0.000000e+00
        Block[  4]  0.000000e+00
        -----------------------------------------------------------------------
        Average   0.000000e+00 +/-  0.000000e+00 [K]

    Nose Hoover energy/kʙ
    ---------------------------------------------------------------------------
        Block[  0]  0.000000e+00
        Block[  1]  0.000000e+00
        Block[  2]  0.000000e+00
        Block[  3]  0.000000e+00
        Block[  4]  0.000000e+00
        -----------------------------------------------------------------------
        Average   0.000000e+00 +/-  0.000000e+00 [K]

Polarization energy/kʙ
-------------------------------------------------------------------------------
    Block[  0]  0.000000e+00
    Block[  1]  0.000000e+00
    Block[  2]  0.000000e+00
    Block[  3]  0.000000e+00
    Block[  4]  0.000000e+00
    ---------------------------------------------------------------------------
    Average   0.000000e+00 +/-  0.000000e+00 [K]

Total energy/kʙ
-------------------------------------------------------------------------------
    Block[  0] -5.563907e+03
    Block[  1] -4.313147e+03
    Block[  2] -4.988021e+03
    Block[  3] -5.752615e+03
    Block[  4] -4.873773e+03
    ---------------------------------------------------------------------------
    Average  -5.098293e+03 +/-  7.142353e+02 [K]

Enthalpy of adsorption
===============================================================================

Component 0 [CO2]
-------------------------------------------------------------------------------
    Block[  0] -2.717118e+03
    Block[  1] -2.683909e+03
    Block[  2] -2.665109e+03
    Block[  3] -2.687280e+03
    Block[  4] -2.689424e+03
    ---------------------------------------------------------------------------
    Enthalpy of adsorption: -2.688568e+03 +/-  2.313887e+01 [K]
                            -2.235400e+01 +/-  1.923873e-01 [kJ/mol]
    Note: need to subtract the ideal-gas energy.


Loadings
===============================================================================

Component 0 (CO2)
    Block[  0]  2.250000e+00
    Block[  1]  1.810000e+00
    Block[  2]  1.970000e+00
    Block[  3]  1.982500e+00
    Block[  4]  1.767500e+00
    ---------------------------------------------------------------------------
    Abs. loading average   1.956000e+00 +/-  2.357006e-01 [molecules/cell]
    Abs. loading average   1.956000e+00 +/-  2.357006e-01 [molecules/uc]
    Abs. loading average   2.945732e-01 +/-  3.549646e-02 [mol/kg-framework]
    Abs. loading average   1.296087e+01 +/-  1.561802e+00 [mg/g-framework]

    Block[  0]  2.235974e+00
    Block[  1]  1.795974e+00
    Block[  2]  1.955974e+00
    Block[  3]  1.968474e+00
    Block[  4]  1.753474e+00
    ---------------------------------------------------------------------------
    Excess loading average   1.941974e+00 +/-  2.357006e-01 [molecules/cell]
    Excess loading average   1.941974e+00 +/-  2.357006e-01 [molecules/uc]
    Excess loading average   2.924609e-01 +/-  3.549646e-02 [mol/kg-framework]
    Excess loading average   1.286793e+01 +/-  1.561802e+00 [mg/g-framework]



