
     Program PWSCF v.7.5 starts on  6Mar2026 at  2:56: 1 

     This program is part of the open-source Quantum ESPRESSO suite
     for quantum simulation of materials; please cite
         "P. Giannozzi et al., J. Phys.:Condens. Matter 21 395502 (2009);
         "P. Giannozzi et al., J. Phys.:Condens. Matter 29 465901 (2017);
         "P. Giannozzi et al., J. Chem. Phys. 152 154105 (2020);
          URL http://www.quantum-espresso.org", 
     in publications or presentations arising from this work. More details at
     http://www.quantum-espresso.org/quote

     Parallel version (MPI & OpenMP), running on       2 processor cores
     Number of MPI processes:                 2
     Threads/MPI process:                     1

     MPI processes distributed on     1 nodes
     4790 MiB available memory on the printing compute node when the environment starts

     Reading input from pw.in
Warning: card &CELL ignored

     Current dimensions of program PWSCF are:
     Max number of different atomic species (ntypx) = 10
     Max number of k-points (npk) =  40000
     Max angular momentum in pseudopotentials (lmaxx) =  4
     file Cu.pbe-dn-kjpaw_psl.1.0.0.UPF: wavefunction(s)  4S 3D renormalized

     R & G space division:  proc/nbgrp/npool/nimage =       2
     Subspace diagonalization in iterative solution of the eigenvalue problem:
     a serial algorithm will be used


     Parallelization info
     --------------------
     sticks:   dense  smooth     PW     G-vecs:    dense   smooth      PW
     Min         219     111     42                 3115     1114     264
     Max         220     112     43                 3116     1115     267
     Sum         439     223     85                 6231     2229     531

     Using Slab Decomposition



     bravais-lattice index     =            2
     lattice parameter (alat)  =       6.8314  a.u.
     unit-cell volume          =      79.7007 (a.u.)^3
     number of atoms/cell      =            1
     number of atomic types    =            1
     number of electrons       =        11.00
     number of Kohn-Sham states=           10
     kinetic-energy cutoff     =      35.0000  Ry
     charge density cutoff     =     280.0000  Ry
     scf convergence threshold =      1.0E-08
     mixing beta               =       0.7000
     number of iterations used =            8  plain     mixing
     Exchange-correlation= SLA  PW   PBX  PBC
                           (   1   4   3   4   0   0   0)

     celldm(1)=   6.831363  celldm(2)=   0.000000  celldm(3)=   0.000000
     celldm(4)=   0.000000  celldm(5)=   0.000000  celldm(6)=   0.000000

     crystal axes: (cart. coord. in units of alat)
               a(1) = (  -0.500000   0.000000   0.500000 )  
               a(2) = (   0.000000   0.500000   0.500000 )  
               a(3) = (  -0.500000   0.500000   0.000000 )  

     reciprocal axes: (cart. coord. in units 2 pi/alat)
               b(1) = ( -1.000000 -1.000000  1.000000 )  
               b(2) = (  1.000000  1.000000  1.000000 )  
               b(3) = ( -1.000000  1.000000 -1.000000 )  


     PseudoPot. # 1 for Cu read from file:
     ./Cu.pbe-dn-kjpaw_psl.1.0.0.UPF
     MD5 check sum: cfffd1f38ee05704b3e17f46f1730a6f
     Pseudo is Projector augmented-wave + core cor, Zval = 11.0
     Generated using &quot;atomic&quot; code by A. Dal Corso  v.6.3
     Shape of augmentation charge: PSQ
     Using radial grid of 1199 points,  6 beta functions with: 
                l(1) =   0
                l(2) =   0
                l(3) =   1
                l(4) =   1
                l(5) =   2
                l(6) =   2
     Q(r) pseudized with 0 coefficients 


     atomic species   valence    mass     pseudopotential
     Cu               11.00    63.54600     Cu( 1.00)

     48 Sym. Ops., with inversion, found


                                    s                        frac. trans.

      isym =  1     identity                                     

 cryst.   s( 1) = (     1          0          0      )
                  (     0          1          0      )
                  (     0          0          1      )

 cart.    s( 1) = (  1.0000000  0.0000000  0.0000000 )
                  (  0.0000000  1.0000000  0.0000000 )
                  (  0.0000000  0.0000000  1.0000000 )


      isym =  2     180 deg rotation - cart. axis [0,0,1]        

 cryst.   s( 2) = (     0          1         -1      )
                  (     1          0         -1      )
                  (     0          0         -1      )

 cart.    s( 2) = ( -1.0000000  0.0000000  0.0000000 )
                  (  0.0000000 -1.0000000  0.0000000 )
                  (  0.0000000  0.0000000  1.0000000 )


      isym =  3     180 deg rotation - cart. axis [0,1,0]        

 cryst.   s( 3) = (    -1          0          0      )
                  (    -1          0          1      )
                  (    -1          1          0      )

 cart.    s( 3) = ( -1.0000000  0.0000000  0.0000000 )
                  (  0.0000000  1.0000000  0.0000000 )
                  (  0.0000000  0.0000000 -1.0000000 )


      isym =  4     180 deg rotation - cart. axis [1,0,0]        

 cryst.   s( 4) = (     0         -1          1      )
                  (     0         -1          0      )
                  (     1         -1          0      )

 cart.    s( 4) = (  1.0000000  0.0000000  0.0000000 )
                  (  0.0000000 -1.0000000  0.0000000 )
                  (  0.0000000  0.0000000 -1.0000000 )


      isym =  5     180 deg rotation - cart. axis [1,1,0]        

 cryst.   s( 5) = (     0         -1          0      )
                  (    -1          0          0      )
                  (     0          0         -1      )

 cart.    s( 5) = (  0.0000000  1.0000000  0.0000000 )
                  (  1.0000000  0.0000000  0.0000000 )
                  (  0.0000000  0.0000000 -1.0000000 )


      isym =  6     180 deg rotation - cart. axis [1,-1,0]       

 cryst.   s( 6) = (    -1          0          1      )
                  (     0         -1          1      )
                  (     0          0          1      )

 cart.    s( 6) = (  0.0000000 -1.0000000  0.0000000 )
                  ( -1.0000000  0.0000000  0.0000000 )
                  (  0.0000000  0.0000000 -1.0000000 )


      isym =  7      90 deg rotation - cart. axis [0,0,-1]       

 cryst.   s( 7) = (     0          1          0      )
                  (     0          1         -1      )
                  (    -1          1          0      )

 cart.    s( 7) = (  0.0000000  1.0000000  0.0000000 )
                  ( -1.0000000  0.0000000  0.0000000 )
                  (  0.0000000  0.0000000  1.0000000 )


      isym =  8      90 deg rotation - cart. axis [0,0,1]        

 cryst.   s( 8) = (     1          0         -1      )
                  (     1          0          0      )
                  (     1         -1          0      )

 cart.    s( 8) = (  0.0000000 -1.0000000  0.0000000 )
                  (  1.0000000  0.0000000  0.0000000 )
                  (  0.0000000  0.0000000  1.0000000 )


      isym =  9     180 deg rotation - cart. axis [1,0,1]        

 cryst.   s( 9) = (    -1          0          0      )
                  (     0          0         -1      )
                  (     0         -1          0      )

 cart.    s( 9) = (  0.0000000  0.0000000  1.0000000 )
                  (  0.0000000 -1.0000000  0.0000000 )
                  (  1.0000000  0.0000000  0.0000000 )


      isym = 10     180 deg rotation - cart. axis [-1,0,1]       

 cryst.   s(10) = (     1          0          0      )
                  (     1         -1          0      )
                  (     1          0         -1      )

 cart.    s(10) = (  0.0000000  0.0000000 -1.0000000 )
                  (  0.0000000 -1.0000000  0.0000000 )
                  ( -1.0000000  0.0000000  0.0000000 )


      isym = 11      90 deg rotation - cart. axis [0,1,0]        

 cryst.   s(11) = (     0          1         -1      )
                  (    -1          1          0      )
                  (     0          1          0      )

 cart.    s(11) = (  0.0000000  0.0000000  1.0000000 )
                  (  0.0000000  1.0000000  0.0000000 )
                  ( -1.0000000  0.0000000  0.0000000 )


      isym = 12      90 deg rotation - cart. axis [0,-1,0]       

 cryst.   s(12) = (     0         -1          1      )
                  (     0          0          1      )
                  (    -1          0          1      )

 cart.    s(12) = (  0.0000000  0.0000000 -1.0000000 )
                  (  0.0000000  1.0000000  0.0000000 )
                  (  1.0000000  0.0000000  0.0000000 )


      isym = 13     180 deg rotation - cart. axis [0,1,1]        

 cryst.   s(13) = (    -1          1          0      )
                  (     0          1          0      )
                  (     0          1         -1      )

 cart.    s(13) = ( -1.0000000  0.0000000  0.0000000 )
                  (  0.0000000  0.0000000  1.0000000 )
                  (  0.0000000  1.0000000  0.0000000 )


      isym = 14     180 deg rotation - cart. axis [0,1,-1]       

 cryst.   s(14) = (     0          0         -1      )
                  (     0         -1          0      )
                  (    -1          0          0      )

 cart.    s(14) = ( -1.0000000  0.0000000  0.0000000 )
                  (  0.0000000  0.0000000 -1.0000000 )
                  (  0.0000000 -1.0000000  0.0000000 )


      isym = 15      90 deg rotation - cart. axis [-1,0,0]       

 cryst.   s(15) = (     0          0          1      )
                  (    -1          0          1      )
                  (     0         -1          1      )

 cart.    s(15) = (  1.0000000  0.0000000  0.0000000 )
                  (  0.0000000  0.0000000  1.0000000 )
                  (  0.0000000 -1.0000000  0.0000000 )


      isym = 16      90 deg rotation - cart. axis [1,0,0]        

 cryst.   s(16) = (     1         -1          0      )
                  (     1          0         -1      )
                  (     1          0          0      )

 cart.    s(16) = (  1.0000000  0.0000000  0.0000000 )
                  (  0.0000000  0.0000000 -1.0000000 )
                  (  0.0000000  1.0000000  0.0000000 )


      isym = 17     120 deg rotation - cart. axis [-1,-1,-1]     

 cryst.   s(17) = (    -1          0          1      )
                  (    -1          1          0      )
                  (    -1          0          0      )

 cart.    s(17) = (  0.0000000  1.0000000  0.0000000 )
                  (  0.0000000  0.0000000  1.0000000 )
                  (  1.0000000  0.0000000  0.0000000 )


      isym = 18     120 deg rotation - cart. axis [-1,1,1]       

 cryst.   s(18) = (     0          1          0      )
                  (     0          0          1      )
                  (     1          0          0      )

 cart.    s(18) = (  0.0000000 -1.0000000  0.0000000 )
                  (  0.0000000  0.0000000  1.0000000 )
                  ( -1.0000000  0.0000000  0.0000000 )


      isym = 19     120 deg rotation - cart. axis [1,1,-1]       

 cryst.   s(19) = (     1          0         -1      )
                  (     0          0         -1      )
                  (     0          1         -1      )

 cart.    s(19) = (  0.0000000  1.0000000  0.0000000 )
                  (  0.0000000  0.0000000 -1.0000000 )
                  ( -1.0000000  0.0000000  0.0000000 )


      isym = 20     120 deg rotation - cart. axis [1,-1,1]       

 cryst.   s(20) = (     0         -1          0      )
                  (     1         -1          0      )
                  (     0         -1          1      )

 cart.    s(20) = (  0.0000000 -1.0000000  0.0000000 )
                  (  0.0000000  0.0000000 -1.0000000 )
                  (  1.0000000  0.0000000  0.0000000 )


      isym = 21     120 deg rotation - cart. axis [1,1,1]        

 cryst.   s(21) = (     0          0         -1      )
                  (     0          1         -1      )
                  (     1          0         -1      )

 cart.    s(21) = (  0.0000000  0.0000000  1.0000000 )
                  (  1.0000000  0.0000000  0.0000000 )
                  (  0.0000000  1.0000000  0.0000000 )


      isym = 22     120 deg rotation - cart. axis [-1,1,-1]      

 cryst.   s(22) = (    -1          1          0      )
                  (    -1          0          0      )
                  (    -1          0          1      )

 cart.    s(22) = (  0.0000000  0.0000000  1.0000000 )
                  ( -1.0000000  0.0000000  0.0000000 )
                  (  0.0000000 -1.0000000  0.0000000 )


      isym = 23     120 deg rotation - cart. axis [1,-1,-1]      

 cryst.   s(23) = (     0          0          1      )
                  (     1          0          0      )
                  (     0          1          0      )

 cart.    s(23) = (  0.0000000  0.0000000 -1.0000000 )
                  ( -1.0000000  0.0000000  0.0000000 )
                  (  0.0000000  1.0000000  0.0000000 )


      isym = 24     120 deg rotation - cart. axis [-1,-1,1]      

 cryst.   s(24) = (     1         -1          0      )
                  (     0         -1          1      )
                  (     0         -1          0      )

 cart.    s(24) = (  0.0000000  0.0000000 -1.0000000 )
                  (  1.0000000  0.0000000  0.0000000 )
                  (  0.0000000 -1.0000000  0.0000000 )


      isym = 25     inversion                                    

 cryst.   s(25) = (    -1          0          0      )
                  (     0         -1          0      )
                  (     0          0         -1      )

 cart.    s(25) = ( -1.0000000  0.0000000  0.0000000 )
                  (  0.0000000 -1.0000000  0.0000000 )
                  (  0.0000000  0.0000000 -1.0000000 )


      isym = 26     inv. 180 deg rotation - cart. axis [0,0,1]   

 cryst.   s(26) = (     0         -1          1      )
                  (    -1          0          1      )
                  (     0          0          1      )

 cart.    s(26) = (  1.0000000  0.0000000  0.0000000 )
                  (  0.0000000  1.0000000  0.0000000 )
                  (  0.0000000  0.0000000 -1.0000000 )


      isym = 27     inv. 180 deg rotation - cart. axis [0,1,0]   

 cryst.   s(27) = (     1          0          0      )
                  (     1          0         -1      )
                  (     1         -1          0      )

 cart.    s(27) = (  1.0000000  0.0000000  0.0000000 )
                  (  0.0000000 -1.0000000  0.0000000 )
                  (  0.0000000  0.0000000  1.0000000 )


      isym = 28     inv. 180 deg rotation - cart. axis [1,0,0]   

 cryst.   s(28) = (     0          1         -1      )
                  (     0          1          0      )
                  (    -1          1          0      )

 cart.    s(28) = ( -1.0000000  0.0000000  0.0000000 )
                  (  0.0000000  1.0000000  0.0000000 )
                  (  0.0000000  0.0000000  1.0000000 )


      isym = 29     inv. 180 deg rotation - cart. axis [1,1,0]   

 cryst.   s(29) = (     0          1          0      )
                  (     1          0          0      )
                  (     0          0          1      )

 cart.    s(29) = (  0.0000000 -1.0000000  0.0000000 )
                  ( -1.0000000  0.0000000  0.0000000 )
                  (  0.0000000  0.0000000  1.0000000 )


      isym = 30     inv. 180 deg rotation - cart. axis [1,-1,0]  

 cryst.   s(30) = (     1          0         -1      )
                  (     0          1         -1      )
                  (     0          0         -1      )

 cart.    s(30) = (  0.0000000  1.0000000  0.0000000 )
                  (  1.0000000  0.0000000  0.0000000 )
                  (  0.0000000  0.0000000  1.0000000 )


      isym = 31     inv.  90 deg rotation - cart. axis [0,0,-1]  

 cryst.   s(31) = (     0         -1          0      )
                  (     0         -1          1      )
                  (     1         -1          0      )

 cart.    s(31) = (  0.0000000 -1.0000000  0.0000000 )
                  (  1.0000000  0.0000000  0.0000000 )
                  (  0.0000000  0.0000000 -1.0000000 )


      isym = 32     inv.  90 deg rotation - cart. axis [0,0,1]   

 cryst.   s(32) = (    -1          0          1      )
                  (    -1          0          0      )
                  (    -1          1          0      )

 cart.    s(32) = (  0.0000000  1.0000000  0.0000000 )
                  ( -1.0000000  0.0000000  0.0000000 )
                  (  0.0000000  0.0000000 -1.0000000 )


      isym = 33     inv. 180 deg rotation - cart. axis [1,0,1]   

 cryst.   s(33) = (     1          0          0      )
                  (     0          0          1      )
                  (     0          1          0      )

 cart.    s(33) = (  0.0000000  0.0000000 -1.0000000 )
                  (  0.0000000  1.0000000  0.0000000 )
                  ( -1.0000000  0.0000000  0.0000000 )


      isym = 34     inv. 180 deg rotation - cart. axis [-1,0,1]  

 cryst.   s(34) = (    -1          0          0      )
                  (    -1          1          0      )
                  (    -1          0          1      )

 cart.    s(34) = (  0.0000000  0.0000000  1.0000000 )
                  (  0.0000000  1.0000000  0.0000000 )
                  (  1.0000000  0.0000000  0.0000000 )


      isym = 35     inv.  90 deg rotation - cart. axis [0,1,0]   

 cryst.   s(35) = (     0         -1          1      )
                  (     1         -1          0      )
                  (     0         -1          0      )

 cart.    s(35) = (  0.0000000  0.0000000 -1.0000000 )
                  (  0.0000000 -1.0000000  0.0000000 )
                  (  1.0000000  0.0000000  0.0000000 )


      isym = 36     inv.  90 deg rotation - cart. axis [0,-1,0]  

 cryst.   s(36) = (     0          1         -1      )
                  (     0          0         -1      )
                  (     1          0         -1      )

 cart.    s(36) = (  0.0000000  0.0000000  1.0000000 )
                  (  0.0000000 -1.0000000  0.0000000 )
                  ( -1.0000000  0.0000000  0.0000000 )


      isym = 37     inv. 180 deg rotation - cart. axis [0,1,1]   

 cryst.   s(37) = (     1         -1          0      )
                  (     0         -1          0      )
                  (     0         -1          1      )

 cart.    s(37) = (  1.0000000  0.0000000  0.0000000 )
                  (  0.0000000  0.0000000 -1.0000000 )
                  (  0.0000000 -1.0000000  0.0000000 )


      isym = 38     inv. 180 deg rotation - cart. axis [0,1,-1]  

 cryst.   s(38) = (     0          0          1      )
                  (     0          1          0      )
                  (     1          0          0      )

 cart.    s(38) = (  1.0000000  0.0000000  0.0000000 )
                  (  0.0000000  0.0000000  1.0000000 )
                  (  0.0000000  1.0000000  0.0000000 )


      isym = 39     inv.  90 deg rotation - cart. axis [-1,0,0]  

 cryst.   s(39) = (     0          0         -1      )
                  (     1          0         -1      )
                  (     0          1         -1      )

 cart.    s(39) = ( -1.0000000  0.0000000  0.0000000 )
                  (  0.0000000  0.0000000 -1.0000000 )
                  (  0.0000000  1.0000000  0.0000000 )


      isym = 40     inv.  90 deg rotation - cart. axis [1,0,0]   

 cryst.   s(40) = (    -1          1          0      )
                  (    -1          0          1      )
                  (    -1          0          0      )

 cart.    s(40) = ( -1.0000000  0.0000000  0.0000000 )
                  (  0.0000000  0.0000000  1.0000000 )
                  (  0.0000000 -1.0000000  0.0000000 )


      isym = 41     inv. 120 deg rotation - cart. axis [-1,-1,-1]

 cryst.   s(41) = (     1          0         -1      )
                  (     1         -1          0      )
                  (     1          0          0      )

 cart.    s(41) = (  0.0000000 -1.0000000  0.0000000 )
                  (  0.0000000  0.0000000 -1.0000000 )
                  ( -1.0000000  0.0000000  0.0000000 )


      isym = 42     inv. 120 deg rotation - cart. axis [-1,1,1]  

 cryst.   s(42) = (     0         -1          0      )
                  (     0          0         -1      )
                  (    -1          0          0      )

 cart.    s(42) = (  0.0000000  1.0000000  0.0000000 )
                  (  0.0000000  0.0000000 -1.0000000 )
                  (  1.0000000  0.0000000  0.0000000 )


      isym = 43     inv. 120 deg rotation - cart. axis [1,1,-1]  

 cryst.   s(43) = (    -1          0          1      )
                  (     0          0          1      )
                  (     0         -1          1      )

 cart.    s(43) = (  0.0000000 -1.0000000  0.0000000 )
                  (  0.0000000  0.0000000  1.0000000 )
                  (  1.0000000  0.0000000  0.0000000 )


      isym = 44     inv. 120 deg rotation - cart. axis [1,-1,1]  

 cryst.   s(44) = (     0          1          0      )
                  (    -1          1          0      )
                  (     0          1         -1      )

 cart.    s(44) = (  0.0000000  1.0000000  0.0000000 )
                  (  0.0000000  0.0000000  1.0000000 )
                  ( -1.0000000  0.0000000  0.0000000 )


      isym = 45     inv. 120 deg rotation - cart. axis [1,1,1]   

 cryst.   s(45) = (     0          0          1      )
                  (     0         -1          1      )
                  (    -1          0          1      )

 cart.    s(45) = (  0.0000000  0.0000000 -1.0000000 )
                  ( -1.0000000  0.0000000  0.0000000 )
                  (  0.0000000 -1.0000000  0.0000000 )


      isym = 46     inv. 120 deg rotation - cart. axis [-1,1,-1] 

 cryst.   s(46) = (     1         -1          0      )
                  (     1          0          0      )
                  (     1          0         -1      )

 cart.    s(46) = (  0.0000000  0.0000000 -1.0000000 )
                  (  1.0000000  0.0000000  0.0000000 )
                  (  0.0000000  1.0000000  0.0000000 )


      isym = 47     inv. 120 deg rotation - cart. axis [1,-1,-1] 

 cryst.   s(47) = (     0          0         -1      )
                  (    -1          0          0      )
                  (     0         -1          0      )

 cart.    s(47) = (  0.0000000  0.0000000  1.0000000 )
                  (  1.0000000  0.0000000  0.0000000 )
                  (  0.0000000 -1.0000000  0.0000000 )


      isym = 48     inv. 120 deg rotation - cart. axis [-1,-1,1] 

 cryst.   s(48) = (    -1          1          0      )
                  (     0          1         -1      )
                  (     0          1          0      )

 cart.    s(48) = (  0.0000000  0.0000000  1.0000000 )
                  ( -1.0000000  0.0000000  0.0000000 )
                  (  0.0000000  1.0000000  0.0000000 )


     point group O_h (m-3m) 
     there are 10 classes
     the character table:

       E     8C3   3C2   6C4   6C2'  i     8S6   3s_h  6S4   6s_d 
A_1g   1.00  1.00  1.00  1.00  1.00  1.00  1.00  1.00  1.00  1.00
A_2g   1.00  1.00  1.00 -1.00 -1.00  1.00  1.00  1.00 -1.00 -1.00
E_g    2.00 -1.00  2.00  0.00  0.00  2.00 -1.00  2.00  0.00  0.00
T_1g   3.00  0.00 -1.00  1.00 -1.00  3.00  0.00 -1.00  1.00 -1.00
T_2g   3.00  0.00 -1.00 -1.00  1.00  3.00  0.00 -1.00 -1.00  1.00
A_1u   1.00  1.00  1.00  1.00  1.00 -1.00 -1.00 -1.00 -1.00 -1.00
A_2u   1.00  1.00  1.00 -1.00 -1.00 -1.00 -1.00 -1.00  1.00  1.00
E_u    2.00 -1.00  2.00  0.00  0.00 -2.00  1.00 -2.00  0.00  0.00
T_1u   3.00  0.00 -1.00  1.00 -1.00 -3.00  0.00  1.00 -1.00  1.00
T_2u   3.00  0.00 -1.00 -1.00  1.00 -3.00  0.00  1.00  1.00 -1.00

     the symmetry operations in each class and the name of the first element:

     E        1
          identity                                               
     8C3     17   19   20   18   24   21   22   23
          120 deg rotation - cart. axis [-1,-1,-1]               
     3C2      2    4    3
          180 deg rotation - cart. axis [0,0,1]                  
     6C4      7    8   15   16   12   11
           90 deg rotation - cart. axis [0,0,-1]                 
     6C2'     5    6   14   13   10    9
          180 deg rotation - cart. axis [1,1,0]                  
     i       25
          inversion                                              
     8S6     41   43   44   42   48   45   46   47
          inv. 120 deg rotation - cart. axis [-1,-1,-1]          
     3s_h    26   28   27
          inv. 180 deg rotation - cart. axis [0,0,1]             
     6S4     31   32   39   40   36   35
          inv.  90 deg rotation - cart. axis [0,0,-1]            
     6s_d    29   30   38   37   34   33
          inv. 180 deg rotation - cart. axis [1,1,0]             

   Cartesian axes

     site n.     atom                  positions (alat units)
         1        Cu     tau(   1) = (   0.0000000   0.0000000   0.0000000  )

   Crystallographic axes

     site n.     atom                  positions (cryst. coord.)
         1        Cu     tau(   1) = (  0.0000000  0.0000000  0.0000000  )

     number of k points=   145  Marzari-Vanderbilt smearing, width (Ry)=  0.0100
                       cart. coord. in units 2pi/alat
        k(    1) = (   0.0000000   0.0000000   0.0000000), wk =   0.0004883
        k(    2) = (  -0.0625000   0.0625000  -0.0625000), wk =   0.0039062
        k(    3) = (  -0.1250000   0.1250000  -0.1250000), wk =   0.0039062
        k(    4) = (  -0.1875000   0.1875000  -0.1875000), wk =   0.0039062
        k(    5) = (  -0.2500000   0.2500000  -0.2500000), wk =   0.0039062
        k(    6) = (  -0.3125000   0.3125000  -0.3125000), wk =   0.0039062
        k(    7) = (  -0.3750000   0.3750000  -0.3750000), wk =   0.0039062
        k(    8) = (  -0.4375000   0.4375000  -0.4375000), wk =   0.0039062
        k(    9) = (   0.5000000  -0.5000000   0.5000000), wk =   0.0019531
        k(   10) = (   0.0000000   0.1250000   0.0000000), wk =   0.0029297
        k(   11) = (  -0.0625000   0.1875000  -0.0625000), wk =   0.0117188
        k(   12) = (  -0.1250000   0.2500000  -0.1250000), wk =   0.0117188
        k(   13) = (  -0.1875000   0.3125000  -0.1875000), wk =   0.0117188
        k(   14) = (  -0.2500000   0.3750000  -0.2500000), wk =   0.0117188
        k(   15) = (  -0.3125000   0.4375000  -0.3125000), wk =   0.0117188
        k(   16) = (  -0.3750000   0.5000000  -0.3750000), wk =   0.0117188
        k(   17) = (   0.5625000  -0.4375000   0.5625000), wk =   0.0117188
        k(   18) = (   0.5000000  -0.3750000   0.5000000), wk =   0.0117188
        k(   19) = (   0.4375000  -0.3125000   0.4375000), wk =   0.0117188
        k(   20) = (   0.3750000  -0.2500000   0.3750000), wk =   0.0117188
        k(   21) = (   0.3125000  -0.1875000   0.3125000), wk =   0.0117188
        k(   22) = (   0.2500000  -0.1250000   0.2500000), wk =   0.0117188
        k(   23) = (   0.1875000  -0.0625000   0.1875000), wk =   0.0117188
        k(   24) = (   0.1250000   0.0000000   0.1250000), wk =   0.0058594
        k(   25) = (   0.0000000   0.2500000   0.0000000), wk =   0.0029297
        k(   26) = (  -0.0625000   0.3125000  -0.0625000), wk =   0.0117188
        k(   27) = (  -0.1250000   0.3750000  -0.1250000), wk =   0.0117188
        k(   28) = (  -0.1875000   0.4375000  -0.1875000), wk =   0.0117188
        k(   29) = (  -0.2500000   0.5000000  -0.2500000), wk =   0.0117188
        k(   30) = (  -0.3125000   0.5625000  -0.3125000), wk =   0.0117188
        k(   31) = (   0.6250000  -0.3750000   0.6250000), wk =   0.0117188
        k(   32) = (   0.5625000  -0.3125000   0.5625000), wk =   0.0117188
        k(   33) = (   0.5000000  -0.2500000   0.5000000), wk =   0.0117188
        k(   34) = (   0.4375000  -0.1875000   0.4375000), wk =   0.0117188
        k(   35) = (   0.3750000  -0.1250000   0.3750000), wk =   0.0117188
        k(   36) = (   0.3125000  -0.0625000   0.3125000), wk =   0.0117188
        k(   37) = (   0.2500000   0.0000000   0.2500000), wk =   0.0058594
        k(   38) = (   0.0000000   0.3750000   0.0000000), wk =   0.0029297
        k(   39) = (  -0.0625000   0.4375000  -0.0625000), wk =   0.0117188
        k(   40) = (  -0.1250000   0.5000000  -0.1250000), wk =   0.0117188
        k(   41) = (  -0.1875000   0.5625000  -0.1875000), wk =   0.0117188
        k(   42) = (  -0.2500000   0.6250000  -0.2500000), wk =   0.0117188
        k(   43) = (   0.6875000  -0.3125000   0.6875000), wk =   0.0117188
        k(   44) = (   0.6250000  -0.2500000   0.6250000), wk =   0.0117188
        k(   45) = (   0.5625000  -0.1875000   0.5625000), wk =   0.0117188
        k(   46) = (   0.5000000  -0.1250000   0.5000000), wk =   0.0117188
        k(   47) = (   0.4375000  -0.0625000   0.4375000), wk =   0.0117188
        k(   48) = (   0.3750000   0.0000000   0.3750000), wk =   0.0058594
        k(   49) = (   0.0000000   0.5000000   0.0000000), wk =   0.0029297
        k(   50) = (  -0.0625000   0.5625000  -0.0625000), wk =   0.0117188
        k(   51) = (  -0.1250000   0.6250000  -0.1250000), wk =   0.0117188
        k(   52) = (  -0.1875000   0.6875000  -0.1875000), wk =   0.0117188
        k(   53) = (   0.7500000  -0.2500000   0.7500000), wk =   0.0117188
        k(   54) = (   0.6875000  -0.1875000   0.6875000), wk =   0.0117188
        k(   55) = (   0.6250000  -0.1250000   0.6250000), wk =   0.0117188
        k(   56) = (   0.5625000  -0.0625000   0.5625000), wk =   0.0117188
        k(   57) = (   0.5000000   0.0000000   0.5000000), wk =   0.0058594
        k(   58) = (   0.0000000   0.6250000   0.0000000), wk =   0.0029297
        k(   59) = (  -0.0625000   0.6875000  -0.0625000), wk =   0.0117188
        k(   60) = (  -0.1250000   0.7500000  -0.1250000), wk =   0.0117188
        k(   61) = (   0.8125000  -0.1875000   0.8125000), wk =   0.0117188
        k(   62) = (   0.7500000  -0.1250000   0.7500000), wk =   0.0117188
        k(   63) = (   0.6875000  -0.0625000   0.6875000), wk =   0.0117188
        k(   64) = (   0.6250000   0.0000000   0.6250000), wk =   0.0058594
        k(   65) = (   0.0000000   0.7500000   0.0000000), wk =   0.0029297
        k(   66) = (  -0.0625000   0.8125000  -0.0625000), wk =   0.0117188
        k(   67) = (   0.8750000  -0.1250000   0.8750000), wk =   0.0117188
        k(   68) = (   0.8125000  -0.0625000   0.8125000), wk =   0.0117188
        k(   69) = (   0.7500000   0.0000000   0.7500000), wk =   0.0058594
        k(   70) = (   0.0000000   0.8750000   0.0000000), wk =   0.0029297
        k(   71) = (   0.9375000  -0.0625000   0.9375000), wk =   0.0117188
        k(   72) = (   0.8750000   0.0000000   0.8750000), wk =   0.0058594
        k(   73) = (   0.0000000  -1.0000000   0.0000000), wk =   0.0014648
        k(   74) = (  -0.1250000   0.2500000   0.0000000), wk =   0.0117188
        k(   75) = (  -0.1875000   0.3125000  -0.0625000), wk =   0.0234375
        k(   76) = (  -0.2500000   0.3750000  -0.1250000), wk =   0.0234375
        k(   77) = (  -0.3125000   0.4375000  -0.1875000), wk =   0.0234375
        k(   78) = (  -0.3750000   0.5000000  -0.2500000), wk =   0.0234375
        k(   79) = (   0.5625000  -0.4375000   0.6875000), wk =   0.0234375
        k(   80) = (   0.5000000  -0.3750000   0.6250000), wk =   0.0117188
        k(   81) = (  -0.1250000   0.3750000   0.0000000), wk =   0.0117188
        k(   82) = (  -0.1875000   0.4375000  -0.0625000), wk =   0.0234375
        k(   83) = (  -0.2500000   0.5000000  -0.1250000), wk =   0.0234375
        k(   84) = (  -0.3125000   0.5625000  -0.1875000), wk =   0.0234375
        k(   85) = (   0.6250000  -0.3750000   0.7500000), wk =   0.0234375
        k(   86) = (   0.5625000  -0.3125000   0.6875000), wk =   0.0234375
        k(   87) = (   0.5000000  -0.2500000   0.6250000), wk =   0.0234375
        k(   88) = (   0.4375000  -0.1875000   0.5625000), wk =   0.0234375
        k(   89) = (   0.3750000  -0.1250000   0.5000000), wk =   0.0234375
        k(   90) = (   0.3125000  -0.0625000   0.4375000), wk =   0.0234375
        k(   91) = (   0.2500000   0.0000000   0.3750000), wk =   0.0117188
        k(   92) = (  -0.1250000   0.5000000   0.0000000), wk =   0.0117188
        k(   93) = (  -0.1875000   0.5625000  -0.0625000), wk =   0.0234375
        k(   94) = (  -0.2500000   0.6250000  -0.1250000), wk =   0.0234375
        k(   95) = (   0.6875000  -0.3125000   0.8125000), wk =   0.0234375
        k(   96) = (   0.6250000  -0.2500000   0.7500000), wk =   0.0234375
        k(   97) = (   0.5625000  -0.1875000   0.6875000), wk =   0.0234375
        k(   98) = (   0.5000000  -0.1250000   0.6250000), wk =   0.0234375
        k(   99) = (   0.4375000  -0.0625000   0.5625000), wk =   0.0234375
        k(  100) = (   0.3750000   0.0000000   0.5000000), wk =   0.0117188
        k(  101) = (  -0.1250000   0.6250000   0.0000000), wk =   0.0117188
        k(  102) = (  -0.1875000   0.6875000  -0.0625000), wk =   0.0234375
        k(  103) = (   0.7500000  -0.2500000   0.8750000), wk =   0.0234375
        k(  104) = (   0.6875000  -0.1875000   0.8125000), wk =   0.0234375
        k(  105) = (   0.6250000  -0.1250000   0.7500000), wk =   0.0234375
        k(  106) = (   0.5625000  -0.0625000   0.6875000), wk =   0.0234375
        k(  107) = (   0.5000000   0.0000000   0.6250000), wk =   0.0117188
        k(  108) = (  -0.1250000   0.7500000   0.0000000), wk =   0.0117188
        k(  109) = (   0.8125000  -0.1875000   0.9375000), wk =   0.0234375
        k(  110) = (   0.7500000  -0.1250000   0.8750000), wk =   0.0234375
        k(  111) = (   0.6875000  -0.0625000   0.8125000), wk =   0.0234375
        k(  112) = (   0.6250000   0.0000000   0.7500000), wk =   0.0117188
        k(  113) = (   0.8750000  -0.1250000   1.0000000), wk =   0.0117188
        k(  114) = (   0.8125000  -0.0625000   0.9375000), wk =   0.0234375
        k(  115) = (   0.7500000   0.0000000   0.8750000), wk =   0.0117188
        k(  116) = (  -0.1250000  -1.0000000   0.0000000), wk =   0.0058594
        k(  117) = (  -0.2500000   0.5000000   0.0000000), wk =   0.0117188
        k(  118) = (  -0.3125000   0.5625000  -0.0625000), wk =   0.0234375
        k(  119) = (   0.6250000  -0.3750000   0.8750000), wk =   0.0234375
        k(  120) = (   0.5625000  -0.3125000   0.8125000), wk =   0.0234375
        k(  121) = (   0.5000000  -0.2500000   0.7500000), wk =   0.0117188
        k(  122) = (  -0.2500000   0.6250000   0.0000000), wk =   0.0117188
        k(  123) = (   0.6875000  -0.3125000   0.9375000), wk =   0.0234375
        k(  124) = (   0.6250000  -0.2500000   0.8750000), wk =   0.0234375
        k(  125) = (   0.5625000  -0.1875000   0.8125000), wk =   0.0234375
        k(  126) = (   0.5000000  -0.1250000   0.7500000), wk =   0.0234375
        k(  127) = (   0.4375000  -0.0625000   0.6875000), wk =   0.0234375
        k(  128) = (   0.3750000   0.0000000   0.6250000), wk =   0.0117188
        k(  129) = (   0.7500000  -0.2500000   1.0000000), wk =   0.0117188
        k(  130) = (   0.6875000  -0.1875000   0.9375000), wk =   0.0234375
        k(  131) = (   0.6250000  -0.1250000   0.8750000), wk =   0.0234375
        k(  132) = (   0.5625000  -0.0625000   0.8125000), wk =   0.0234375
        k(  133) = (   0.5000000   0.0000000   0.7500000), wk =   0.0117188
        k(  134) = (   0.7500000  -0.1250000   1.0000000), wk =   0.0117188
        k(  135) = (   0.6875000  -0.0625000   0.9375000), wk =   0.0234375
        k(  136) = (   0.6250000   0.0000000   0.8750000), wk =   0.0117188
        k(  137) = (  -0.2500000  -1.0000000   0.0000000), wk =   0.0058594
        k(  138) = (   0.6250000  -0.2500000   1.0000000), wk =   0.0117188
        k(  139) = (   0.5625000  -0.1875000   0.9375000), wk =   0.0234375
        k(  140) = (   0.5000000  -0.1250000   0.8750000), wk =   0.0117188
        k(  141) = (   0.6250000  -0.1250000   1.0000000), wk =   0.0117188
        k(  142) = (   0.5625000  -0.0625000   0.9375000), wk =   0.0234375
        k(  143) = (   0.5000000   0.0000000   0.8750000), wk =   0.0117188
        k(  144) = (  -0.3750000  -1.0000000   0.0000000), wk =   0.0058594
        k(  145) = (  -0.5000000  -1.0000000   0.0000000), wk =   0.0029297

                       cryst. coord.
        k(    1) = (   0.0000000   0.0000000   0.0000000), wk =   0.0004883
        k(    2) = (   0.0000000   0.0000000   0.0625000), wk =   0.0039062
        k(    3) = (   0.0000000   0.0000000   0.1250000), wk =   0.0039062
        k(    4) = (   0.0000000   0.0000000   0.1875000), wk =   0.0039062
        k(    5) = (   0.0000000   0.0000000   0.2500000), wk =   0.0039062
        k(    6) = (   0.0000000   0.0000000   0.3125000), wk =   0.0039062
        k(    7) = (   0.0000000   0.0000000   0.3750000), wk =   0.0039062
        k(    8) = (   0.0000000   0.0000000   0.4375000), wk =   0.0039062
        k(    9) = (   0.0000000   0.0000000  -0.5000000), wk =   0.0019531
        k(   10) = (   0.0000000   0.0625000   0.0625000), wk =   0.0029297
        k(   11) = (   0.0000000   0.0625000   0.1250000), wk =   0.0117188
        k(   12) = (   0.0000000   0.0625000   0.1875000), wk =   0.0117188
        k(   13) = (   0.0000000   0.0625000   0.2500000), wk =   0.0117188
        k(   14) = (   0.0000000   0.0625000   0.3125000), wk =   0.0117188
        k(   15) = (   0.0000000   0.0625000   0.3750000), wk =   0.0117188
        k(   16) = (   0.0000000   0.0625000   0.4375000), wk =   0.0117188
        k(   17) = (   0.0000000   0.0625000  -0.5000000), wk =   0.0117188
        k(   18) = (   0.0000000   0.0625000  -0.4375000), wk =   0.0117188
        k(   19) = (   0.0000000   0.0625000  -0.3750000), wk =   0.0117188
        k(   20) = (   0.0000000   0.0625000  -0.3125000), wk =   0.0117188
        k(   21) = (   0.0000000   0.0625000  -0.2500000), wk =   0.0117188
        k(   22) = (   0.0000000   0.0625000  -0.1875000), wk =   0.0117188
        k(   23) = (   0.0000000   0.0625000  -0.1250000), wk =   0.0117188
        k(   24) = (   0.0000000   0.0625000  -0.0625000), wk =   0.0058594
        k(   25) = (   0.0000000   0.1250000   0.1250000), wk =   0.0029297
        k(   26) = (   0.0000000   0.1250000   0.1875000), wk =   0.0117188
        k(   27) = (   0.0000000   0.1250000   0.2500000), wk =   0.0117188
        k(   28) = (   0.0000000   0.1250000   0.3125000), wk =   0.0117188
        k(   29) = (   0.0000000   0.1250000   0.3750000), wk =   0.0117188
        k(   30) = (   0.0000000   0.1250000   0.4375000), wk =   0.0117188
        k(   31) = (   0.0000000   0.1250000  -0.5000000), wk =   0.0117188
        k(   32) = (   0.0000000   0.1250000  -0.4375000), wk =   0.0117188
        k(   33) = (   0.0000000   0.1250000  -0.3750000), wk =   0.0117188
        k(   34) = (   0.0000000   0.1250000  -0.3125000), wk =   0.0117188
        k(   35) = (   0.0000000   0.1250000  -0.2500000), wk =   0.0117188
        k(   36) = (   0.0000000   0.1250000  -0.1875000), wk =   0.0117188
        k(   37) = (   0.0000000   0.1250000  -0.1250000), wk =   0.0058594
        k(   38) = (   0.0000000   0.1875000   0.1875000), wk =   0.0029297
        k(   39) = (   0.0000000   0.1875000   0.2500000), wk =   0.0117188
        k(   40) = (   0.0000000   0.1875000   0.3125000), wk =   0.0117188
        k(   41) = (   0.0000000   0.1875000   0.3750000), wk =   0.0117188
        k(   42) = (   0.0000000   0.1875000   0.4375000), wk =   0.0117188
        k(   43) = (   0.0000000   0.1875000  -0.5000000), wk =   0.0117188
        k(   44) = (   0.0000000   0.1875000  -0.4375000), wk =   0.0117188
        k(   45) = (   0.0000000   0.1875000  -0.3750000), wk =   0.0117188
        k(   46) = (   0.0000000   0.1875000  -0.3125000), wk =   0.0117188
        k(   47) = (   0.0000000   0.1875000  -0.2500000), wk =   0.0117188
        k(   48) = (   0.0000000   0.1875000  -0.1875000), wk =   0.0058594
        k(   49) = (   0.0000000   0.2500000   0.2500000), wk =   0.0029297
        k(   50) = (   0.0000000   0.2500000   0.3125000), wk =   0.0117188
        k(   51) = (   0.0000000   0.2500000   0.3750000), wk =   0.0117188
        k(   52) = (   0.0000000   0.2500000   0.4375000), wk =   0.0117188
        k(   53) = (   0.0000000   0.2500000  -0.5000000), wk =   0.0117188
        k(   54) = (   0.0000000   0.2500000  -0.4375000), wk =   0.0117188
        k(   55) = (   0.0000000   0.2500000  -0.3750000), wk =   0.0117188
        k(   56) = (   0.0000000   0.2500000  -0.3125000), wk =   0.0117188
        k(   57) = (   0.0000000   0.2500000  -0.2500000), wk =   0.0058594
        k(   58) = (   0.0000000   0.3125000   0.3125000), wk =   0.0029297
        k(   59) = (   0.0000000   0.3125000   0.3750000), wk =   0.0117188
        k(   60) = (   0.0000000   0.3125000   0.4375000), wk =   0.0117188
        k(   61) = (   0.0000000   0.3125000  -0.5000000), wk =   0.0117188
        k(   62) = (   0.0000000   0.3125000  -0.4375000), wk =   0.0117188
        k(   63) = (   0.0000000   0.3125000  -0.3750000), wk =   0.0117188
        k(   64) = (   0.0000000   0.3125000  -0.3125000), wk =   0.0058594
        k(   65) = (   0.0000000   0.3750000   0.3750000), wk =   0.0029297
        k(   66) = (   0.0000000   0.3750000   0.4375000), wk =   0.0117188
        k(   67) = (   0.0000000   0.3750000  -0.5000000), wk =   0.0117188
        k(   68) = (   0.0000000   0.3750000  -0.4375000), wk =   0.0117188
        k(   69) = (   0.0000000   0.3750000  -0.3750000), wk =   0.0058594
        k(   70) = (   0.0000000   0.4375000   0.4375000), wk =   0.0029297
        k(   71) = (   0.0000000   0.4375000  -0.5000000), wk =   0.0117188
        k(   72) = (   0.0000000   0.4375000  -0.4375000), wk =   0.0058594
        k(   73) = (   0.0000000  -0.5000000  -0.5000000), wk =   0.0014648
        k(   74) = (   0.0625000   0.1250000   0.1875000), wk =   0.0117188
        k(   75) = (   0.0625000   0.1250000   0.2500000), wk =   0.0234375
        k(   76) = (   0.0625000   0.1250000   0.3125000), wk =   0.0234375
        k(   77) = (   0.0625000   0.1250000   0.3750000), wk =   0.0234375
        k(   78) = (   0.0625000   0.1250000   0.4375000), wk =   0.0234375
        k(   79) = (   0.0625000   0.1250000  -0.5000000), wk =   0.0234375
        k(   80) = (   0.0625000   0.1250000  -0.4375000), wk =   0.0117188
        k(   81) = (   0.0625000   0.1875000   0.2500000), wk =   0.0117188
        k(   82) = (   0.0625000   0.1875000   0.3125000), wk =   0.0234375
        k(   83) = (   0.0625000   0.1875000   0.3750000), wk =   0.0234375
        k(   84) = (   0.0625000   0.1875000   0.4375000), wk =   0.0234375
        k(   85) = (   0.0625000   0.1875000  -0.5000000), wk =   0.0234375
        k(   86) = (   0.0625000   0.1875000  -0.4375000), wk =   0.0234375
        k(   87) = (   0.0625000   0.1875000  -0.3750000), wk =   0.0234375
        k(   88) = (   0.0625000   0.1875000  -0.3125000), wk =   0.0234375
        k(   89) = (   0.0625000   0.1875000  -0.2500000), wk =   0.0234375
        k(   90) = (   0.0625000   0.1875000  -0.1875000), wk =   0.0234375
        k(   91) = (   0.0625000   0.1875000  -0.1250000), wk =   0.0117188
        k(   92) = (   0.0625000   0.2500000   0.3125000), wk =   0.0117188
        k(   93) = (   0.0625000   0.2500000   0.3750000), wk =   0.0234375
        k(   94) = (   0.0625000   0.2500000   0.4375000), wk =   0.0234375
        k(   95) = (   0.0625000   0.2500000  -0.5000000), wk =   0.0234375
        k(   96) = (   0.0625000   0.2500000  -0.4375000), wk =   0.0234375
        k(   97) = (   0.0625000   0.2500000  -0.3750000), wk =   0.0234375
        k(   98) = (   0.0625000   0.2500000  -0.3125000), wk =   0.0234375
        k(   99) = (   0.0625000   0.2500000  -0.2500000), wk =   0.0234375
        k(  100) = (   0.0625000   0.2500000  -0.1875000), wk =   0.0117188
        k(  101) = (   0.0625000   0.3125000   0.3750000), wk =   0.0117188
        k(  102) = (   0.0625000   0.3125000   0.4375000), wk =   0.0234375
        k(  103) = (   0.0625000   0.3125000  -0.5000000), wk =   0.0234375
        k(  104) = (   0.0625000   0.3125000  -0.4375000), wk =   0.0234375
        k(  105) = (   0.0625000   0.3125000  -0.3750000), wk =   0.0234375
        k(  106) = (   0.0625000   0.3125000  -0.3125000), wk =   0.0234375
        k(  107) = (   0.0625000   0.3125000  -0.2500000), wk =   0.0117188
        k(  108) = (   0.0625000   0.3750000   0.4375000), wk =   0.0117188
        k(  109) = (   0.0625000   0.3750000  -0.5000000), wk =   0.0234375
        k(  110) = (   0.0625000   0.3750000  -0.4375000), wk =   0.0234375
        k(  111) = (   0.0625000   0.3750000  -0.3750000), wk =   0.0234375
        k(  112) = (   0.0625000   0.3750000  -0.3125000), wk =   0.0117188
        k(  113) = (   0.0625000   0.4375000  -0.5000000), wk =   0.0117188
        k(  114) = (   0.0625000   0.4375000  -0.4375000), wk =   0.0234375
        k(  115) = (   0.0625000   0.4375000  -0.3750000), wk =   0.0117188
        k(  116) = (   0.0625000  -0.5000000  -0.4375000), wk =   0.0058594
        k(  117) = (   0.1250000   0.2500000   0.3750000), wk =   0.0117188
        k(  118) = (   0.1250000   0.2500000   0.4375000), wk =   0.0234375
        k(  119) = (   0.1250000   0.2500000  -0.5000000), wk =   0.0234375
        k(  120) = (   0.1250000   0.2500000  -0.4375000), wk =   0.0234375
        k(  121) = (   0.1250000   0.2500000  -0.3750000), wk =   0.0117188
        k(  122) = (   0.1250000   0.3125000   0.4375000), wk =   0.0117188
        k(  123) = (   0.1250000   0.3125000  -0.5000000), wk =   0.0234375
        k(  124) = (   0.1250000   0.3125000  -0.4375000), wk =   0.0234375
        k(  125) = (   0.1250000   0.3125000  -0.3750000), wk =   0.0234375
        k(  126) = (   0.1250000   0.3125000  -0.3125000), wk =   0.0234375
        k(  127) = (   0.1250000   0.3125000  -0.2500000), wk =   0.0234375
        k(  128) = (   0.1250000   0.3125000  -0.1875000), wk =   0.0117188
        k(  129) = (   0.1250000   0.3750000  -0.5000000), wk =   0.0117188
        k(  130) = (   0.1250000   0.3750000  -0.4375000), wk =   0.0234375
        k(  131) = (   0.1250000   0.3750000  -0.3750000), wk =   0.0234375
        k(  132) = (   0.1250000   0.3750000  -0.3125000), wk =   0.0234375
        k(  133) = (   0.1250000   0.3750000  -0.2500000), wk =   0.0117188
        k(  134) = (   0.1250000   0.4375000  -0.4375000), wk =   0.0117188
        k(  135) = (   0.1250000   0.4375000  -0.3750000), wk =   0.0234375
        k(  136) = (   0.1250000   0.4375000  -0.3125000), wk =   0.0117188
        k(  137) = (   0.1250000  -0.5000000  -0.3750000), wk =   0.0058594
        k(  138) = (   0.1875000   0.3750000  -0.4375000), wk =   0.0117188
        k(  139) = (   0.1875000   0.3750000  -0.3750000), wk =   0.0234375
        k(  140) = (   0.1875000   0.3750000  -0.3125000), wk =   0.0117188
        k(  141) = (   0.1875000   0.4375000  -0.3750000), wk =   0.0117188
        k(  142) = (   0.1875000   0.4375000  -0.3125000), wk =   0.0234375
        k(  143) = (   0.1875000   0.4375000  -0.2500000), wk =   0.0117188
        k(  144) = (   0.1875000  -0.5000000  -0.3125000), wk =   0.0058594
        k(  145) = (   0.2500000  -0.5000000  -0.2500000), wk =   0.0029297

     Dense  grid:     6231 G-vectors     FFT dimensions: (  25,  25,  25)

     Smooth grid:     2229 G-vectors     FFT dimensions: (  20,  20,  20)

     Dynamical RAM for                 wfc:       0.02 MB

     Dynamical RAM for     wfc (w. buffer):       3.10 MB

     Dynamical RAM for           str. fact:       0.05 MB

     Dynamical RAM for           local pot:       0.00 MB

     Dynamical RAM for          nlocal pot:       0.04 MB

     Dynamical RAM for                qrad:       1.34 MB

     Dynamical RAM for          rho,v,vnew:       0.33 MB

     Dynamical RAM for               rhoin:       0.11 MB

     Dynamical RAM for            rho*nmix:       0.76 MB

     Dynamical RAM for           G-vectors:       0.19 MB

     Dynamical RAM for          h,s,v(r/c):       0.02 MB

     Dynamical RAM for          <psi|beta>:       0.00 MB

     Dynamical RAM for                 psi:       0.04 MB

     Dynamical RAM for                hpsi:       0.04 MB

     Dynamical RAM for                spsi:       0.04 MB

     Dynamical RAM for      wfcinit/wfcrot:       0.04 MB

     Dynamical RAM for           addusdens:       8.89 MB

     Estimated static dynamical RAM per process >       5.56 MB

     Estimated max dynamical RAM per process >      15.20 MB

     Estimated total dynamical RAM >      30.41 MB

     Initial potential from superposition of free atoms

     starting charge      10.9998, renormalised to      11.0000
     Starting wfcs are    9 randomized atomic wfcs +    1 random wfcs
     Checking if some PAW data can be deallocated... 

     total cpu time spent up to now is        0.3 secs

     Self-consistent Calculation

     iteration #  1     ecut=    35.00 Ry     beta= 0.70
     Davidson diagonalization with overlap

---- Real-time Memory Report at c_bands before calling an iterative solver
            49 MiB given to the printing process from OS
             0 MiB allocation reported by mallinfo(arena+hblkhd)
          4725 MiB available memory on the node where the printing process lives
------------------
     ethr =  1.00E-02,  avg # of iterations =  4.0

     Threshold (ethr) on eigenvalues was too large:
     Diagonalizing with lowered threshold

     Davidson diagonalization with overlap

---- Real-time Memory Report at c_bands before calling an iterative solver
            51 MiB given to the printing process from OS
             0 MiB allocation reported by mallinfo(arena+hblkhd)
          4740 MiB available memory on the node where the printing process lives
------------------
     ethr =  5.42E-04,  avg # of iterations =  1.2

     total cpu time spent up to now is        0.6 secs

     total energy              =    -213.05702886 Ry
     estimated scf accuracy    <       0.05945749 Ry

     iteration #  2     ecut=    35.00 Ry     beta= 0.70
     Davidson diagonalization with overlap

---- Real-time Memory Report at c_bands before calling an iterative solver
            58 MiB given to the printing process from OS
             0 MiB allocation reported by mallinfo(arena+hblkhd)
          4729 MiB available memory on the node where the printing process lives
------------------
     ethr =  5.41E-04,  avg # of iterations =  2.1

     total cpu time spent up to now is        0.8 secs

     total energy              =    -213.05946983 Ry
     estimated scf accuracy    <       0.20835559 Ry

     iteration #  3     ecut=    35.00 Ry     beta= 0.70
     Davidson diagonalization with overlap

---- Real-time Memory Report at c_bands before calling an iterative solver
            58 MiB given to the printing process from OS
             0 MiB allocation reported by mallinfo(arena+hblkhd)
          4727 MiB available memory on the node where the printing process lives
------------------
     ethr =  5.41E-04,  avg # of iterations =  2.1

     total cpu time spent up to now is        0.9 secs

     total energy              =    -213.09217099 Ry
     estimated scf accuracy    <       0.00013292 Ry

     iteration #  4     ecut=    35.00 Ry     beta= 0.70
     Davidson diagonalization with overlap

---- Real-time Memory Report at c_bands before calling an iterative solver
            58 MiB given to the printing process from OS
             0 MiB allocation reported by mallinfo(arena+hblkhd)
          4719 MiB available memory on the node where the printing process lives
------------------
     ethr =  1.21E-06,  avg # of iterations =  3.6

     total cpu time spent up to now is        1.2 secs

     total energy              =    -213.09222431 Ry
     estimated scf accuracy    <       0.00004075 Ry

     iteration #  5     ecut=    35.00 Ry     beta= 0.70
     Davidson diagonalization with overlap

---- Real-time Memory Report at c_bands before calling an iterative solver
            58 MiB given to the printing process from OS
             0 MiB allocation reported by mallinfo(arena+hblkhd)
          4721 MiB available memory on the node where the printing process lives
------------------
     ethr =  3.70E-07,  avg # of iterations =  1.3

     total cpu time spent up to now is        1.3 secs

     total energy              =    -213.09223330 Ry
     estimated scf accuracy    <       0.00000220 Ry

     iteration #  6     ecut=    35.00 Ry     beta= 0.70
     Davidson diagonalization with overlap

---- Real-time Memory Report at c_bands before calling an iterative solver
            58 MiB given to the printing process from OS
             0 MiB allocation reported by mallinfo(arena+hblkhd)
          4708 MiB available memory on the node where the printing process lives
------------------
     ethr =  2.00E-08,  avg # of iterations =  1.5

     total cpu time spent up to now is        1.5 secs

     total energy              =    -213.09223378 Ry
     estimated scf accuracy    <       0.00000001 Ry

     iteration #  7     ecut=    35.00 Ry     beta= 0.70
     Davidson diagonalization with overlap

---- Real-time Memory Report at c_bands before calling an iterative solver
            58 MiB given to the printing process from OS
             0 MiB allocation reported by mallinfo(arena+hblkhd)
          4724 MiB available memory on the node where the printing process lives
------------------
     ethr =  1.19E-10,  avg # of iterations =  3.5

     total cpu time spent up to now is        1.7 secs

     End of self-consistent calculation

          k = 0.0000 0.0000 0.0000 (   283 PWs)   bands (ev):

     3.2649   9.6827   9.6827   9.6827  10.5147  10.5147  35.5742  37.9703
    37.9703  37.9703

     occupation numbers 
     1.0000   1.0000   1.0000   1.0000   1.0000   1.0000   0.0000   0.0000
     0.0000   0.0000

          k =-0.0625 0.0625-0.0625 (   283 PWs)   bands (ev):

     3.4071   9.6523   9.7100   9.7100  10.5041  10.5041  34.5847  36.5407
    37.5104  37.5104

     occupation numbers 
     1.0000   1.0000   1.0000   1.0000   1.0000   1.0000   0.0000   0.0000
     0.0000   0.0000

          k =-0.1250 0.1250-0.1250 (   280 PWs)   bands (ev):

     3.8278   9.5713   9.7774   9.7774  10.4859  10.4859  31.5346  36.1117
    36.7329  36.7329

     occupation numbers 
     1.0000   1.0000   1.0000   1.0000   1.0000   1.0000   0.0000   0.0000
     0.0000   0.0000

          k =-0.1875 0.1875-0.1875 (   283 PWs)   bands (ev):

     4.5055   9.4731   9.8387   9.8387  10.5018  10.5018  28.2597  35.8044
    36.0310  36.0310

     occupation numbers 
     1.0000   1.0000   1.0000   1.0000   1.0000   1.0000   0.0000   0.0000
     0.0000   0.0000

          k =-0.2500 0.2500-0.2500 (   289 PWs)   bands (ev):

     5.3888   9.4206   9.8403   9.8403  10.5981  10.5981  25.1194  35.3632
    35.4830  35.4830

     occupation numbers 
     1.0000   1.0000   1.0000   1.0000   1.0000   1.0000   0.0000   0.0000
     0.0000   0.0000

          k =-0.3125 0.3125-0.3125 (   287 PWs)   bands (ev):

     6.3509   9.5392   9.7865   9.7865  10.7587  10.7587  22.1930  34.8553
    35.1035  35.1035

     occupation numbers 
     1.0000   1.0000   1.0000   1.0000   1.0000   1.0000   0.0000   0.0000
     0.0000   0.0000

          k =-0.3750 0.3750-0.3750 (   281 PWs)   bands (ev):

     7.1242   9.7186   9.7186  10.0561  10.9245  10.9245  19.5607  34.3996
    34.8748  34.8748

     occupation numbers 
     1.0000   1.0000   1.0000   1.0000   1.0000   1.0000   0.0000   0.0000
     0.0000   0.0000

          k =-0.4375 0.4375-0.4375 (   269 PWs)   bands (ev):

     7.4998   9.6673   9.6673  11.0080  11.0462  11.0462  17.4162  34.0897
    34.7680  34.7680

     occupation numbers 
     1.0000   1.0000   1.0000   1.0000   1.0000   1.0000   0.0000   0.0000
     0.0000   0.0000

          k = 0.5000-0.5000 0.5000 (   272 PWs)   bands (ev):

     7.5929   9.6485   9.6485  11.0894  11.0894  11.6236  16.4319  33.9807
    34.7393  34.7393

     occupation numbers 
     1.0000   1.0000   1.0000   1.0000   1.0000   1.0000   0.0000   0.0000
     0.0000   0.0000

          k = 0.0000 0.1250 0.0000 (   279 PWs)   bands (ev):

     3.4544   9.6262   9.7282   9.7282  10.4643  10.5355  34.9145  36.2988
    36.2988  37.2307

     occupation numbers 
     1.0000   1.0000   1.0000   1.0000   1.0000   1.0000   0.0000   0.0000
     0.0000   0.0000

          k =-0.0625 0.1875-0.0625 (   283 PWs)   bands (ev):

     3.7820   9.5518   9.7890   9.7921  10.4108  10.5512  32.6978  35.2231
    35.3479  37.7767

     occupation numbers 
     1.0000   1.0000   1.0000   1.0000   1.0000   1.0000   0.0000   0.0000
     0.0000   0.0000

          k =-0.1250 0.2500-0.1250 (   287 PWs)   bands (ev):

     4.3744   9.4524   9.8554   9.8628  10.3871  10.5808  29.4377  34.3510
    34.8713  38.7477

     occupation numbers 
     1.0000   1.0000   1.0000   1.0000   1.0000   1.0000   0.0000   0.0000
     0.0000   0.0000

          k =-0.1875 0.3125-0.1875 (   285 PWs)   bands (ev):

     5.1925   9.3702   9.8562   9.8888  10.4730  10.6660  26.2445  33.7087
    34.4346  38.0010

     occupation numbers 
     1.0000   1.0000   1.0000   1.0000   1.0000   1.0000   0.0000   0.0000
     0.0000   0.0000

          k =-0.2500 0.3750-0.2500 (   283 PWs)   bands (ev):

     6.1424   9.3912   9.7849   9.8551  10.6803  10.8064  23.2396  33.3044
    34.0341  36.4799

     occupation numbers 
     1.0000   1.0000   1.0000   1.0000   1.0000   1.0000   0.0000   0.0000
     0.0000   0.0000

          k =-0.3125 0.4375-0.3125 (   282 PWs)   bands (ev):

     7.0035   9.6608   9.7107   9.7917  10.9553  10.9795  20.4893  33.1479
    33.6735  35.2073

     occupation numbers 
     1.0000   1.0000   1.0000   1.0000   1.0000   1.0000   0.0000   0.0000
     0.0000   0.0000

          k =-0.3750 0.5000-0.3750 (   274 PWs)   bands (ev):

     7.4995   9.6282   9.7318  10.2387  11.0624  11.4723  18.1252  33.2583
    33.2641  34.3728

     occupation numbers 
     1.0000   1.0000   1.0000   1.0000   1.0000   1.0000   0.0000   0.0000
     0.0000   0.0000

          k = 0.5625-0.4375 0.5625 (   271 PWs)   bands (ev):

     7.6614   9.5989   9.6970  10.5895  11.0925  12.1508  16.5933  32.6993
    33.6670  34.1308

     occupation numbers 
     1.0000   1.0000   1.0000   1.0000   1.0000   1.0001   0.0000   0.0000
     0.0000   0.0000

          k = 0.5000-0.3750 0.5000 (   271 PWs)   bands (ev):

     7.6334   9.6120   9.6976  10.5508  11.0352  11.9772  16.9525  32.2151
    34.3049  34.3585

     occupation numbers 
     1.0000   1.0000   1.0000   1.0000   1.0000   1.0000   0.0000   0.0000
     0.0000   0.0000

          k = 0.4375-0.3125 0.4375 (   277 PWs)   bands (ev):

     7.3818   9.6633   9.7352  10.0788  10.8978  11.3701  18.8572  31.9474
    34.7610  35.3091

     occupation numbers 
     1.0000   1.0000   1.0000   1.0000   1.0000   1.0000   0.0000   0.0000
     0.0000   0.0000

          k = 0.3750-0.2500 0.3750 (   286 PWs)   bands (ev):

     6.7479   9.5571   9.7390   9.8004  10.7115  11.0434  21.3735  31.9230
    35.4355  36.3983

     occupation numbers 
     1.0000   1.0000   1.0000   1.0000   1.0000   1.0000   0.0000   0.0000
     0.0000   0.0000

          k = 0.3125-0.1875 0.3125 (   287 PWs)   bands (ev):

     5.8220   9.3773   9.8137   9.8690  10.5230  10.8201  24.2213  32.1323
    36.2334  37.3113

     occupation numbers 
     1.0000   1.0000   1.0000   1.0000   1.0000   1.0000   0.0000   0.0000
     0.0000   0.0000

          k = 0.2500-0.1250 0.2500 (   283 PWs)   bands (ev):

     4.8989   9.4039   9.8525   9.8903  10.4028  10.6542  27.2935  32.5663
    36.9528  37.9291

     occupation numbers 
     1.0000   1.0000   1.0000   1.0000   1.0000   1.0000   0.0000   0.0000
     0.0000   0.0000

          k = 0.1875-0.0625 0.1875 (   282 PWs)   bands (ev):

     4.1491   9.5002   9.8281   9.8295  10.3977  10.5633  30.5232  33.2145
    37.2772  38.4392

     occupation numbers 
     1.0000   1.0000   1.0000   1.0000   1.0000   1.0000   0.0000   0.0000
     0.0000   0.0000

          k = 0.1250 0.0000 0.1250 (   281 PWs)   bands (ev):

     3.6421   9.5963   9.7494   9.7627  10.4518  10.5286  33.4362  34.4315
    37.1463  38.5016

     occupation numbers 
     1.0000   1.0000   1.0000   1.0000   1.0000   1.0000   0.0000   0.0000
     0.0000   0.0000

          k = 0.0000 0.2500 0.0000 (   287 PWs)   bands (ev):

     4.0134   9.4662   9.8617   9.8617  10.3238  10.5947  33.7256  33.9459
    33.9459  35.7461

     occupation numbers 
     1.0000   1.0000   1.0000   1.0000   1.0000   1.0000   0.0000   0.0000
     0.0000   0.0000

          k =-0.0625 0.3125-0.0625 (   289 PWs)   bands (ev):

     4.5108   9.3562   9.9368   9.9516  10.2707  10.6378  30.7874  32.9154
    33.9495  36.1269

     occupation numbers 
     1.0000   1.0000   1.0000   1.0000   1.0000   1.0000   0.0000   0.0000
     0.0000   0.0000

          k =-0.1250 0.3750-0.1250 (   289 PWs)   bands (ev):

     5.2433   9.2498   9.8943  10.0085  10.3922  10.7170  27.5729  32.1433
    33.5223  35.9592

     occupation numbers 
     1.0000   1.0000   1.0000   1.0000   1.0000   1.0000   0.0000   0.0000
     0.0000   0.0000

          k =-0.1875 0.4375-0.1875 (   286 PWs)   bands (ev):

     6.1389   9.1954   9.7700  10.0012  10.6853  10.8451  24.5045  31.6414
    32.9818  34.6557

     occupation numbers 
     1.0000   1.0000   1.0000   1.0000   1.0000   1.0000   0.0000   0.0000
     0.0000   0.0000

          k =-0.2500 0.5000-0.2500 (   275 PWs)   bands (ev):

     7.0267   9.2772   9.6549   9.9492  10.9843  11.1318  21.6526  31.4310
    32.1496  33.7901

     occupation numbers 
     1.0000   1.0000   1.0000   1.0000   1.0000   1.0000   0.0000   0.0000
     0.0000   0.0000

          k =-0.3125 0.5625-0.3125 (   271 PWs)   bands (ev):

     7.6219   9.4498   9.7099   9.8862  11.0812  11.8322  19.1044  31.1043
    31.5227  33.4890

     occupation numbers 
     1.0000   1.0000   1.0000   1.0000   1.0000   1.0000   0.0000   0.0000
     0.0000   0.0000

          k = 0.6250-0.3750 0.6250 (   275 PWs)   bands (ev):

     7.8523   9.4450   9.8375  10.0106  11.1008  12.7977  17.1111  30.1643
    31.9357  33.5137

     occupation numbers 
     1.0000   1.0000   1.0000   1.0000   1.0000   0.0171   0.0000   0.0000
     0.0000   0.0000

          k = 0.5625-0.3125 0.5625 (   274 PWs)   bands (ev):

     7.8816   9.4577   9.8188  10.0969  11.0319  13.0741  16.7207  29.4508
    32.6804  33.8017

     occupation numbers 
     1.0000   1.0000   1.0000   1.0000   1.0000   0.0000   0.0000   0.0000
     0.0000   0.0000

          k = 0.5000-0.2500 0.5000 (   276 PWs)   bands (ev):

     7.7429   9.5181   9.8369   9.8611  10.8811  12.2514  18.3666  29.0041
    33.7434  34.3544

     occupation numbers 
     1.0000   1.0000   1.0000   1.0000   1.0000   1.0026   0.0000   0.0000
     0.0000   0.0000

          k = 0.4375-0.1875 0.4375 (   277 PWs)   bands (ev):

     7.2859   9.4687   9.6164   9.8905  10.6765  11.5787  20.7791  28.8270
    35.1076  35.1772

     occupation numbers 
     1.0000   1.0000   1.0000   1.0000   1.0000   1.0000   0.0000   0.0000
     0.0000   0.0000

          k = 0.3750-0.1250 0.3750 (   283 PWs)   bands (ev):

     6.4582   9.2812   9.7267   9.9666  10.4562  11.1729  23.5431  28.9173
    36.2685  36.7378

     occupation numbers 
     1.0000   1.0000   1.0000   1.0000   1.0000   1.0000   0.0000   0.0000
     0.0000   0.0000

          k = 0.3125-0.0625 0.3125 (   283 PWs)   bands (ev):

     5.5320   9.2952   9.8188  10.0156  10.2942  10.8880  26.5393  29.2726
    37.5904  38.6216

     occupation numbers 
     1.0000   1.0000   1.0000   1.0000   1.0000   1.0000   0.0000   0.0000
     0.0000   0.0000

          k = 0.2500 0.0000 0.2500 (   285 PWs)   bands (ev):

     4.7303   9.3916   9.8569   9.9363  10.3059  10.6859  29.4414  30.1491
    38.2861  39.3058

     occupation numbers 
     1.0000   1.0000   1.0000   1.0000   1.0000   1.0000   0.0000   0.0000
     0.0000   0.0000

          k = 0.0000 0.3750 0.0000 (   291 PWs)   bands (ev):

     4.9060   9.2303  10.0748  10.0748  10.1441  10.6842  31.7317  31.7317
    32.6097  33.9409

     occupation numbers 
     1.0000   1.0000   1.0000   1.0000   1.0000   1.0000   0.0000   0.0000
     0.0000   0.0000

          k =-0.0625 0.4375-0.0625 (   290 PWs)   bands (ev):

     5.5331   9.1036   9.9707  10.1776  10.3277  10.7520  29.0224  30.8181
    32.5532  33.5120

     occupation numbers 
     1.0000   1.0000   1.0000   1.0000   1.0000   1.0000   0.0000   0.0000
     0.0000   0.0000

          k =-0.1250 0.5000-0.1250 (   290 PWs)   bands (ev):

     6.3308   9.0065   9.8060  10.2084  10.6880  10.8687  25.9572  30.1943
    31.3881  33.1731

     occupation numbers 
     1.0000   1.0000   1.0000   1.0000   1.0000   1.0000   0.0000   0.0000
     0.0000   0.0000

          k =-0.1875 0.5625-0.1875 (   282 PWs)   bands (ev):

     7.1655   8.9816   9.6613  10.1750  11.0037  11.2381  23.0387  29.8829
    29.9934  32.9029

     occupation numbers 
     1.0000   1.0000   1.0000   1.0000   1.0000   1.0000   0.0000   0.0000
     0.0000   0.0000

          k =-0.2500 0.6250-0.2500 (   280 PWs)   bands (ev):

     7.8025   9.0641   9.5946  10.1144  11.0980  12.0890  20.3573  28.6987
    29.8991  32.8022

     occupation numbers 
     1.0000   1.0000   1.0000   1.0000   1.0000   1.0000   0.0000   0.0000
     0.0000   0.0000

          k = 0.6875-0.3125 0.6875 (   277 PWs)   bands (ev):

     8.1021   9.1569   9.6754  10.0558  11.1140  13.2915  18.0421  27.6108
    30.2603  32.8812

     occupation numbers 
     1.0000   1.0000   1.0000   1.0000   1.0000   0.0000   0.0000   0.0000
     0.0000   0.0000

          k = 0.6250-0.2500 0.6250 (   279 PWs)   bands (ev):

     8.1909   9.2061   9.7560  10.0172  11.0381  14.2283  16.7741  26.7681
    30.9616  33.1595

     occupation numbers 
     1.0000   1.0000   1.0000   1.0000   1.0000   0.0000   0.0000   0.0000
     0.0000   0.0000

          k = 0.5625-0.1875 0.5625 (   277 PWs)   bands (ev):

     8.1490   9.2867   9.6417  10.0097  10.8805  13.4022  18.0692  26.1962
    31.9880  33.6667

     occupation numbers 
     1.0000   1.0000   1.0000   1.0000   1.0000   0.0000   0.0000   0.0000
     0.0000   0.0000

          k = 0.5000-0.1250 0.5000 (   278 PWs)   bands (ev):

     7.8783   9.3500   9.4291  10.0375  10.6665  12.3631  20.3965  25.9074
    33.3089  34.4210

     occupation numbers 
     1.0000   1.0000   1.0000   1.0000   1.0000   1.0373   0.0000   0.0000
     0.0000   0.0000

          k = 0.4375-0.0625 0.4375 (   279 PWs)   bands (ev):

     7.2203   9.1900   9.5731  10.0993  10.4296  11.6759  23.0700  25.9088
    34.8876  35.4301

     occupation numbers 
     1.0000   1.0000   1.0000   1.0000   1.0000   1.0000   0.0000   0.0000
     0.0000   0.0000

          k = 0.3750 0.0000 0.3750 (   285 PWs)   bands (ev):

     6.3495   9.2014   9.7174  10.1835  10.2076  11.2190  25.7089  26.4577
    36.6403  36.6770

     occupation numbers 
     1.0000   1.0000   1.0000   1.0000   1.0000   1.0000   0.0000   0.0000
     0.0000   0.0000

          k = 0.0000 0.5000 0.0000 (   290 PWs)   bands (ev):

     6.0325   8.9577  10.0442  10.3499  10.3499  10.7900  29.7642  29.7642
    31.0717  31.7277

     occupation numbers 
     1.0000   1.0000   1.0000   1.0000   1.0000   1.0000   0.0000   0.0000
     0.0000   0.0000

          k =-0.0625 0.5625-0.0625 (   288 PWs)   bands (ev):

     6.6779   8.8354   9.9801  10.4471  10.6591  10.8780  27.4596  29.0061
    29.4248  32.1063

     occupation numbers 
     1.0000   1.0000   1.0000   1.0000   1.0000   1.0000   0.0000   0.0000
     0.0000   0.0000

          k =-0.1250 0.6250-0.1250 (   280 PWs)   bands (ev):

     7.3536   8.7630   9.8617  10.4442  11.0109  11.2738  24.6065  27.8345
    28.5739  32.2386

     occupation numbers 
     1.0000   1.0000   1.0000   1.0000   1.0000   1.0000   0.0000   0.0000
     0.0000   0.0000

          k =-0.1875 0.6875-0.1875 (   279 PWs)   bands (ev):

     7.9053   8.7629   9.7567  10.3916  11.1112  12.2509  21.8682  26.4262
    28.4882  32.2389

     occupation numbers 
     1.0000   1.0000   1.0000   1.0000   1.0000   1.0026   0.0000   0.0000
     0.0000   0.0000

          k = 0.7500-0.2500 0.7500 (   279 PWs)   bands (ev):

     8.2442   8.8260   9.6933  10.3269  11.1307  13.6149  19.3731  25.2412
    28.7655  32.3269

     occupation numbers 
     1.0000   1.0000   1.0000   1.0000   1.0000   0.0000   0.0000   0.0000
     0.0000   0.0000

          k = 0.6875-0.1875 0.6875 (   277 PWs)   bands (ev):

     8.4237   8.9051   9.6435  10.2690  11.0559  15.1519  17.3708  24.3109
    29.3995  32.5680

     occupation numbers 
     1.0000   1.0000   1.0000   1.0000   1.0000   0.0000   0.0000   0.0000
     0.0000   0.0000

          k = 0.6250-0.1250 0.6250 (   274 PWs)   bands (ev):

     8.4936   9.0106   9.5213  10.2288  10.9022  14.8020  17.9200  23.6476
    30.3719  32.9896

     occupation numbers 
     1.0000   1.0000   1.0000   1.0000   1.0000   0.0000   0.0000   0.0000
     0.0000   0.0000

          k = 0.5625-0.0625 0.5625 (   276 PWs)   bands (ev):

     8.3910   9.1739   9.3066  10.2072  10.7022  13.4323  20.1499  23.2947
    31.6377  33.6162

     occupation numbers 
     1.0000   1.0000   1.0000   1.0000   1.0000   0.0000   0.0000   0.0000
     0.0000   0.0000

          k = 0.5000 0.0000 0.5000 (   273 PWs)   bands (ev):

     7.9480   9.1680   9.3782  10.1848  10.5140  12.3923  22.3827  23.5747
    33.1606  34.4512

     occupation numbers 
     1.0000   1.0000   1.0000   1.0000   1.0000   1.0568   0.0000   0.0000
     0.0000   0.0000

          k = 0.0000 0.6250 0.0000 (   274 PWs)   bands (ev):

     7.1062   8.6909  10.3269  10.6569  10.6569  10.8971  27.5241  28.1135
    28.1135  31.0824

     occupation numbers 
     1.0000   1.0000   1.0000   1.0000   1.0000   1.0000   0.0000   0.0000
     0.0000   0.0000

          k =-0.0625 0.6875-0.0625 (   278 PWs)   bands (ev):

     7.5245   8.5922  10.3720  10.7191  11.0023  11.2447  25.8091  26.2252
    27.5447  31.4566

     occupation numbers 
     1.0000   1.0000   1.0000   1.0000   1.0000   1.0000   0.0000   0.0000
     0.0000   0.0000

          k =-0.1250 0.7500-0.1250 (   277 PWs)   bands (ev):

     7.8735   8.5572  10.2314  10.6799  11.1178  12.3564  23.5578  24.3886
    27.3393  31.7315

     occupation numbers 
     1.0000   1.0000   1.0000   1.0000   1.0000   1.0332   0.0000   0.0000
     0.0000   0.0000

          k = 0.8125-0.1875 0.8125 (   276 PWs)   bands (ev):

     8.1486   8.5892  10.0570  10.6142  11.1497  13.8231  21.0248  23.1499
    27.5147  31.8724

     occupation numbers 
     1.0000   1.0000   1.0000   1.0000   1.0000   0.0000   0.0000   0.0000
     0.0000   0.0000

          k = 0.7500-0.1250 0.7500 (   276 PWs)   bands (ev):

     8.3790   8.6676   9.8582  10.5392  11.0855  15.5625  18.7237  22.1889
    28.0656  32.0841

     occupation numbers 
     1.0000   1.0000   1.0000   1.0000   1.0000   0.0000   0.0000   0.0000
     0.0000   0.0000

          k = 0.6875-0.0625 0.6875 (   278 PWs)   bands (ev):

     8.5808   8.7683   9.6287  10.4564  10.9521  16.4465  17.7573  21.5615
    28.9633  32.4291

     occupation numbers 
     1.0000   1.0000   1.0000   1.0000   1.0000   0.0000   0.0000   0.0000
     0.0000   0.0000

          k = 0.6250 0.0000 0.6250 (   280 PWs)   bands (ev):

     8.6419   8.9389   9.3970  10.3529  10.8031  14.8201  19.4669  21.6085
    30.1719  32.9344

     occupation numbers 
     1.0000   1.0000   1.0000   1.0000   1.0000   0.0000   0.0000   0.0000
     0.0000   0.0000

          k = 0.0000 0.7500 0.0000 (   278 PWs)   bands (ev):

     7.6678   8.4691  10.9448  10.9448  10.9884  11.4299  24.0904  26.8394
    26.8394  30.6385

     occupation numbers 
     1.0000   1.0000   1.0000   1.0000   1.0000   1.0000   0.0000   0.0000
     0.0000   0.0000

          k =-0.0625 0.8125-0.0625 (   281 PWs)   bands (ev):

     7.8100   8.4092  10.8360  10.9287  11.1189  12.5360  22.6054  25.2512
    26.5026  31.0580

     occupation numbers 
     1.0000   1.0000   1.0000   1.0000   1.0000   0.9356   0.0000   0.0000
     0.0000   0.0000

          k = 0.8750-0.1250 0.8750 (   276 PWs)   bands (ev):

     7.9729   8.4217  10.5858  10.8672  11.1730  13.9697  21.4117  22.9072
    26.5601  31.4569

     occupation numbers 
     1.0000   1.0000   1.0000   1.0000   1.0000   0.0000   0.0000   0.0000
     0.0000   0.0000

          k = 0.8125-0.0625 0.8125 (   278 PWs)   bands (ev):

     8.1665   8.5007  10.2753  10.7799  11.1291  15.5573  20.3950  20.7866
    27.0111  31.7036

     occupation numbers 
     1.0000   1.0000   1.0000   1.0000   1.0000   0.0000   0.0000   0.0000
     0.0000   0.0000

          k = 0.7500 0.0000 0.7500 (   276 PWs)   bands (ev):

     8.3893   8.6227   9.9336  10.6484  11.0353  16.9912  18.3969  20.5010
    27.8280  32.0056

     occupation numbers 
     1.0000   1.0000   1.0000   1.0000   1.0000   0.0000   0.0000   0.0000
     0.0000   0.0000

          k = 0.0000 0.8750 0.0000 (   286 PWs)   bands (ev):

     7.7925   8.3232  11.0488  11.1557  11.1557  13.1035  21.1882  26.0302
    26.0302  30.3677

     occupation numbers 
     1.0000   1.0000   1.0000   1.0000   1.0000   0.0000   0.0000   0.0000
     0.0000   0.0000

          k = 0.9375-0.0625 0.9375 (   276 PWs)   bands (ev):

     7.8459   8.3113  11.0273  11.0479  11.2083  14.0803  20.2242  24.7539
    25.9580  30.8764

     occupation numbers 
     1.0000   1.0000   1.0000   1.0000   1.0000   0.0000   0.0000   0.0000
     0.0000   0.0000

          k = 0.8750 0.0000 0.8750 (   280 PWs)   bands (ev):

     7.9737   8.3748  10.7105  10.9443  11.1830  15.0426  19.9225  22.6711
    26.2931  31.3623

     occupation numbers 
     1.0000   1.0000   1.0000   1.0000   1.0000   0.0000   0.0000   0.0000
     0.0000   0.0000

          k = 0.0000-1.0000 0.0000 (   286 PWs)   bands (ev):

     7.8015   8.2723  11.0710  11.2341  11.2341  14.1284  19.7801  25.7515
    25.7515  30.2730

     occupation numbers 
     1.0000   1.0000   1.0000   1.0000   1.0000   0.0000   0.0000   0.0000
     0.0000   0.0000

          k =-0.1250 0.2500 0.0000 (   286 PWs)   bands (ev):

     4.1955   9.4573   9.8576   9.8692  10.3428  10.5953  31.5183  32.2636
    36.3153  37.5291

     occupation numbers 
     1.0000   1.0000   1.0000   1.0000   1.0000   1.0000   0.0000   0.0000
     0.0000   0.0000

          k =-0.1875 0.3125-0.0625 (   286 PWs)   bands (ev):

     4.8605   9.3497   9.8754   9.9588  10.3250  10.6871  28.5442  31.2246
    36.1589  37.8493

     occupation numbers 
     1.0000   1.0000   1.0000   1.0000   1.0000   1.0000   0.0000   0.0000
     0.0000   0.0000

          k =-0.2500 0.3750-0.1250 (   287 PWs)   bands (ev):

     5.7242   9.2762   9.8097   9.9725  10.4486  10.8582  25.4165  30.7047
    35.4089  36.7841

     occupation numbers 
     1.0000   1.0000   1.0000   1.0000   1.0000   1.0000   0.0000   0.0000
     0.0000   0.0000

          k =-0.3125 0.4375-0.1875 (   281 PWs)   bands (ev):

     6.6580   9.3238   9.7040   9.9198  10.6720  11.1161  22.4861  30.4330
    34.3087  35.8874

     occupation numbers 
     1.0000   1.0000   1.0000   1.0000   1.0000   1.0000   0.0000   0.0000
     0.0000   0.0000

          k =-0.3750 0.5000-0.2500 (   278 PWs)   bands (ev):

     7.3941   9.5617   9.6581   9.8563  10.8909  11.5407  19.8279  30.4105
    33.1205  35.3418

     occupation numbers 
     1.0000   1.0000   1.0000   1.0000   1.0000   1.0000   0.0000   0.0000
     0.0000   0.0000

          k = 0.5625-0.4375 0.6875 (   277 PWs)   bands (ev):

     7.7370   9.5209   9.7973  10.0561  11.0277  12.2959  17.6129  30.6388
    32.1060  35.0187

     occupation numbers 
     1.0000   1.0000   1.0000   1.0000   1.0000   1.0091   0.0000   0.0000
     0.0000   0.0000

          k = 0.5000-0.3750 0.6250 (   278 PWs)   bands (ev):

     7.8187   9.4969   9.7807  10.2256  11.0703  12.8965  16.5335  30.9410
    31.5327  34.9088

     occupation numbers 
     1.0000   1.0000   1.0000   1.0000   1.0000   0.0006   0.0000   0.0000
     0.0000   0.0000

          k =-0.1250 0.3750 0.0000 (   288 PWs)   bands (ev):

     5.0774   9.2369   9.9341  10.0777  10.2696  10.7147  29.7279  30.2822
    34.8868  35.0056

     occupation numbers 
     1.0000   1.0000   1.0000   1.0000   1.0000   1.0000   0.0000   0.0000
     0.0000   0.0000

          k =-0.1875 0.4375-0.0625 (   288 PWs)   bands (ev):

     5.8522   9.1324   9.8161  10.1483  10.4283  10.8762  26.8052  29.4384
    33.5627  35.2282

     occupation numbers 
     1.0000   1.0000   1.0000   1.0000   1.0000   1.0000   0.0000   0.0000
     0.0000   0.0000

          k =-0.2500 0.5000-0.1250 (   284 PWs)   bands (ev):

     6.7358   9.0911   9.6700  10.1210  10.6971  11.1644  23.8141  29.0702
    32.0569  34.9571

     occupation numbers 
     1.0000   1.0000   1.0000   1.0000   1.0000   1.0000   0.0000   0.0000
     0.0000   0.0000

          k =-0.3125 0.5625-0.1875 (   279 PWs)   bands (ev):

     7.5130   9.1782   9.5613  10.0599  10.9282  11.7055  21.0447  28.9716
    30.6880  34.7417

     occupation numbers 
     1.0000   1.0000   1.0000   1.0000   1.0000   1.0000   0.0000   0.0000
     0.0000   0.0000

          k = 0.6250-0.3750 0.7500 (   276 PWs)   bands (ev):

     7.9394   9.2908   9.6391   9.9994  11.0475  12.6395  18.5996  29.0670
    29.6203  34.6917

     occupation numbers 
     1.0000   1.0000   1.0000   1.0000   1.0000   0.4105   0.0000   0.0000
     0.0000   0.0000

          k = 0.5625-0.3125 0.6875 (   274 PWs)   bands (ev):

     8.0746   9.2929   9.8259   9.9549  11.0636  13.7083  16.8575  28.4972
    29.7565  34.8516

     occupation numbers 
     1.0000   1.0000   1.0000   1.0000   1.0000   0.0000   0.0000   0.0000
     0.0000   0.0000

          k = 0.5000-0.2500 0.6250 (   275 PWs)   bands (ev):

     8.0600   9.3232   9.7908   9.9514  10.9921  13.4319  17.3044  27.8569
    30.5108  35.2547

     occupation numbers 
     1.0000   1.0000   1.0000   1.0000   1.0000   0.0000   0.0000   0.0000
     0.0000   0.0000

          k = 0.4375-0.1875 0.5625 (   277 PWs)   bands (ev):

     7.8621   9.3860   9.5359   9.9891  10.8407  12.3862  19.3839  27.4792
    31.5444  35.9146

     occupation numbers 
     1.0000   1.0000   1.0000   1.0000   1.0000   1.0526   0.0000   0.0000
     0.0000   0.0000

          k = 0.3750-0.1250 0.5000 (   278 PWs)   bands (ev):

     7.3064   9.2276   9.5576  10.0513  10.6222  11.6549  21.9570  27.3803
    32.8168  36.7976

     occupation numbers 
     1.0000   1.0000   1.0000   1.0000   1.0000   1.0000   0.0000   0.0000
     0.0000   0.0000

          k = 0.3125-0.0625 0.4375 (   282 PWs)   bands (ev):

     6.4494   9.1720   9.6948  10.1242  10.3848  11.2041  24.8038  27.5612
    34.2962  37.7333

     occupation numbers 
     1.0000   1.0000   1.0000   1.0000   1.0000   1.0000   0.0000   0.0000
     0.0000   0.0000

          k = 0.2500 0.0000 0.3750 (   287 PWs)   bands (ev):

     5.5765   9.2394   9.8155  10.1065  10.2657  10.8942  27.5991  28.2617
    35.9079  37.7674

     occupation numbers 
     1.0000   1.0000   1.0000   1.0000   1.0000   1.0000   0.0000   0.0000
     0.0000   0.0000

          k =-0.1250 0.5000 0.0000 (   289 PWs)   bands (ev):

     6.1865   8.9789   9.8766  10.3501  10.4530  10.8724  28.1065  28.5367
    31.4428  33.6603

     occupation numbers 
     1.0000   1.0000   1.0000   1.0000   1.0000   1.0000   0.0000   0.0000
     0.0000   0.0000

          k =-0.1875 0.5625-0.0625 (   282 PWs)   bands (ev):

     6.9504   8.8935   9.7339  10.3845  10.7184  11.1769  25.3238  27.8868
    29.8126  34.0337

     occupation numbers 
     1.0000   1.0000   1.0000   1.0000   1.0000   1.0000   0.0000   0.0000
     0.0000   0.0000

          k =-0.2500 0.6250-0.1250 (   276 PWs)   bands (ev):

     7.6621   8.8822   9.6052  10.3312  10.9549  11.8214  22.4978  27.6677
    28.3655  34.0041

     occupation numbers 
     1.0000   1.0000   1.0000   1.0000   1.0000   1.0000   0.0000   0.0000
     0.0000   0.0000

          k = 0.6875-0.3125 0.8125 (   277 PWs)   bands (ev):

     8.1277   8.9497   9.5538  10.2596  11.0683  12.9023  19.9048  26.9898
    27.8992  34.0372

     occupation numbers 
     1.0000   1.0000   1.0000   1.0000   1.0000   0.0005   0.0000   0.0000
     0.0000   0.0000

          k = 0.6250-0.2500 0.7500 (   276 PWs)   bands (ev):

     8.3348   9.0084   9.5992  10.1926  11.0746  14.3121  17.7113  25.9881
    28.3113  34.2486

     occupation numbers 
     1.0000   1.0000   1.0000   1.0000   1.0000   0.0000   0.0000   0.0000
     0.0000   0.0000

          k = 0.5625-0.1875 0.6875 (   276 PWs)   bands (ev):

     8.3986   9.0612   9.5876  10.1542  10.9886  14.7732  17.1900  25.2248
    29.0400  34.6865

     occupation numbers 
     1.0000   1.0000   1.0000   1.0000   1.0000   0.0000   0.0000   0.0000
     0.0000   0.0000

          k = 0.5000-0.1250 0.6250 (   275 PWs)   bands (ev):

     8.3252   9.1662   9.4081  10.1636  10.8278  13.5024  19.1344  24.7410
    30.0386  35.3855

     occupation numbers 
     1.0000   1.0000   1.0000   1.0000   1.0000   0.0000   0.0000   0.0000
     0.0000   0.0000

          k = 0.4375-0.0625 0.5625 (   275 PWs)   bands (ev):

     7.9726   9.1585   9.3582  10.2056  10.6136  12.4191  21.6164  24.5572
    31.2728  36.3535

     occupation numbers 
     1.0000   1.0000   1.0000   1.0000   1.0000   1.0740   0.0000   0.0000
     0.0000   0.0000

          k = 0.3750 0.0000 0.5000 (   276 PWs)   bands (ev):

     7.2681   9.1093   9.5321  10.2446  10.4026  11.6950  24.0733  24.9599
    32.7087  37.5259

     occupation numbers 
     1.0000   1.0000   1.0000   1.0000   1.0000   1.0000   0.0000   0.0000
     0.0000   0.0000

          k =-0.1250 0.6250 0.0000 (   280 PWs)   bands (ev):

     7.2374   8.7252   9.9908  10.6552  10.7590  11.1540  26.7087  27.0268
    27.7834  32.7421

     occupation numbers 
     1.0000   1.0000   1.0000   1.0000   1.0000   1.0000   0.0000   0.0000
     0.0000   0.0000

          k =-0.1875 0.6875-0.0625 (   277 PWs)   bands (ev):

     7.7486   8.6727   9.9048  10.6414  10.9624  11.8958  24.1231  26.1094
    26.7043  33.2477

     occupation numbers 
     1.0000   1.0000   1.0000   1.0000   1.0000   1.0000   0.0000   0.0000
     0.0000   0.0000

          k = 0.7500-0.2500 0.8750 (   276 PWs)   bands (ev):

     8.1287   8.6892   9.7968  10.5569  11.0870  13.0978  21.4891  24.8030
    26.6993  33.3964

     occupation numbers 
     1.0000   1.0000   1.0000   1.0000   1.0000   0.0000   0.0000   0.0000
     0.0000   0.0000

          k = 0.6875-0.1875 0.8125 (   277 PWs)   bands (ev):

     8.3848   8.7491   9.6929  10.4652  11.0999  14.6677  19.0878  23.7124
    27.0598  33.6090

     occupation numbers 
     1.0000   1.0000   1.0000   1.0000   1.0000   0.0000   0.0000   0.0000
     0.0000   0.0000

          k = 0.6250-0.1250 0.7500 (   274 PWs)   bands (ev):

     8.5745   8.8105   9.5685  10.3869  11.0186  16.1461  17.3783  22.8842
    27.7372  33.9966

     occupation numbers 
     1.0000   1.0000   1.0000   1.0000   1.0000   0.0000   0.0000   0.0000
     0.0000   0.0000

          k = 0.5625-0.0625 0.6875 (   278 PWs)   bands (ev):

     8.6531   8.9252   9.3771  10.3381  10.8706  14.9024  18.9580  22.3737
    28.6898  34.5944

     occupation numbers 
     1.0000   1.0000   1.0000   1.0000   1.0000   0.0000   0.0000   0.0000
     0.0000   0.0000

          k = 0.5000 0.0000 0.6250 (   277 PWs)   bands (ev):

     8.4752   9.1318   9.1911  10.3007  10.7060  13.4870  20.9574  22.5256
    29.8832  35.4107

     occupation numbers 
     1.0000   1.0000   1.0000   1.0000   1.0000   0.0000   0.0000   0.0000
     0.0000   0.0000

          k =-0.1250 0.7500 0.0000 (   280 PWs)   bands (ev):

     7.7766   8.5138  10.4223  10.9438  10.9501  12.0252  24.2223  25.6010
    25.9897  32.1237

     occupation numbers 
     1.0000   1.0000   1.0000   1.0000   1.0000   1.0000   0.0000   0.0000
     0.0000   0.0000

          k = 0.8125-0.1875 0.9375 (   276 PWs)   bands (ev):

     7.9980   8.5049  10.2829  10.8406  11.1064  13.2881  22.8503  23.2893
    25.7596  32.7610

     occupation numbers 
     1.0000   1.0000   1.0000   1.0000   1.0000   0.0000   0.0000   0.0000
     0.0000   0.0000

          k = 0.7500-0.1250 0.8750 (   281 PWs)   bands (ev):

     8.2061   8.5628  10.0796  10.7228  11.1409  14.8651  20.8217  21.8014
    26.0312  33.0568

     occupation numbers 
     1.0000   1.0000   1.0000   1.0000   1.0000   0.0000   0.0000   0.0000
     0.0000   0.0000

          k = 0.6875-0.0625 0.8125 (   275 PWs)   bands (ev):

     8.4199   8.6610   9.8300  10.6045  11.0802  16.6270  18.6015  21.0647
    26.6418  33.4122

     occupation numbers 
     1.0000   1.0000   1.0000   1.0000   1.0000   0.0000   0.0000   0.0000
     0.0000   0.0000

          k = 0.6250 0.0000 0.7500 (   276 PWs)   bands (ev):

     8.6413   8.7548   9.5580  10.4826  10.9694  16.5888  18.2798  21.0011
    27.5441  33.9158

     occupation numbers 
     1.0000   1.0000   1.0000   1.0000   1.0000   0.0000   0.0000   0.0000
     0.0000   0.0000

          k = 0.8750-0.1250 1.0000 (   281 PWs)   bands (ev):

     7.8858   8.3744  10.7711  11.0147  11.1552  13.5855  21.3006  24.8837
    25.2547  31.7621

     occupation numbers 
     1.0000   1.0000   1.0000   1.0000   1.0000   0.0000   0.0000   0.0000
     0.0000   0.0000

          k = 0.8125-0.0625 0.9375 (   279 PWs)   bands (ev):

     8.0155   8.4153  10.5418  10.9084  11.1987  14.8930  20.3988  22.8179
    25.2831  32.5251

     occupation numbers 
     1.0000   1.0000   1.0000   1.0000   1.0000   0.0000   0.0000   0.0000
     0.0000   0.0000

          k = 0.7500 0.0000 0.8750 (   278 PWs)   bands (ev):

     8.1984   8.5215  10.2018  10.7765  11.1567  16.0868  20.0824  20.6945
    25.8056  32.9521

     occupation numbers 
     1.0000   1.0000   1.0000   1.0000   1.0000   0.0000   0.0000   0.0000
     0.0000   0.0000

          k =-0.1250-1.0000 0.0000 (   276 PWs)   bands (ev):

     7.8898   8.3258  10.9135  11.0050  11.2346  14.6186  19.8531  24.6366
    25.0039  31.6564

     occupation numbers 
     1.0000   1.0000   1.0000   1.0000   1.0000   0.0000   0.0000   0.0000
     0.0000   0.0000

          k =-0.2500 0.5000 0.0000 (   285 PWs)   bands (ev):

     6.6256   9.0360   9.6731  10.3593  10.3976  11.2033  25.9901  26.6591
    31.9668  36.5886

     occupation numbers 
     1.0000   1.0000   1.0000   1.0000   1.0000   1.0000   0.0000   0.0000
     0.0000   0.0000

          k =-0.3125 0.5625-0.0625 (   278 PWs)   bands (ev):

     7.4315   9.0066   9.5124  10.3120  10.6317  11.7154  23.3438  26.1333
    30.4119  36.8663

     occupation numbers 
     1.0000   1.0000   1.0000   1.0000   1.0000   1.0000   0.0000   0.0000
     0.0000   0.0000

          k = 0.6250-0.3750 0.8750 (   277 PWs)   bands (ev):

     8.0369   9.0819   9.4025  10.2344  10.8550  12.5438  20.6647  26.1393
    29.0614  36.6306

     occupation numbers 
     1.0000   1.0000   1.0000   1.0000   1.0000   0.9049   0.0000   0.0000
     0.0000   0.0000

          k = 0.5625-0.3125 0.8125 (   275 PWs)   bands (ev):

     8.3045   9.1027   9.5014  10.1654  10.9906  13.7661  18.3068  26.4364
    27.9491  36.4233

     occupation numbers 
     1.0000   1.0000   1.0000   1.0000   1.0000   0.0000   0.0000   0.0000
     0.0000   0.0000

          k = 0.5000-0.2500 0.7500 (   278 PWs)   bands (ev):

     8.3682   9.0756   9.6025  10.1319  11.0333  14.7727  16.9238  26.8749
    27.2352  36.3443

     occupation numbers 
     1.0000   1.0000   1.0000   1.0000   1.0000   0.0000   0.0000   0.0000
     0.0000   0.0000

          k =-0.2500 0.6250 0.0000 (   279 PWs)   bands (ev):

     7.5992   8.8267   9.6084  10.6263  10.6547  11.7665  24.6418  25.3564
    28.1812  35.6004

     occupation numbers 
     1.0000   1.0000   1.0000   1.0000   1.0000   1.0000   0.0000   0.0000
     0.0000   0.0000

          k = 0.6875-0.3125 0.9375 (   278 PWs)   bands (ev):

     8.1259   8.8337   9.4810  10.5329  10.8805  12.6997  22.1761  25.0046
    26.7538  36.1216

     occupation numbers 
     1.0000   1.0000   1.0000   1.0000   1.0000   0.1643   0.0000   0.0000
     0.0000   0.0000

          k = 0.6250-0.2500 0.8750 (   276 PWs)   bands (ev):

     8.4390   8.8785   9.4262  10.4261  11.0175  14.0394  19.6829  25.1822
    25.5937  36.2774

     occupation numbers 
     1.0000   1.0000   1.0000   1.0000   1.0000   0.0000   0.0000   0.0000
     0.0000   0.0000

          k = 0.5625-0.1875 0.8125 (   275 PWs)   bands (ev):

     8.6145   8.8598   9.4431  10.3420  11.0499  15.6081  17.6073  24.5769
    25.7722  36.5379

     occupation numbers 
     1.0000   1.0000   1.0000   1.0000   1.0000   0.0000   0.0000   0.0000
     0.0000   0.0000

          k = 0.5000-0.1250 0.7500 (   276 PWs)   bands (ev):

     8.6547   8.8971   9.3674  10.3273  10.9894  15.1613  18.1910  23.9017
    26.5676  36.9955

     occupation numbers 
     1.0000   1.0000   1.0000   1.0000   1.0000   0.0000   0.0000   0.0000
     0.0000   0.0000

          k = 0.4375-0.0625 0.6875 (   277 PWs)   bands (ev):

     8.4971   9.0270   9.2105  10.3805  10.8474  13.6691  20.4498  23.5324
    27.6220  37.6720

     occupation numbers 
     1.0000   1.0000   1.0000   1.0000   1.0000   0.0000   0.0000   0.0000
     0.0000   0.0000

          k = 0.3750 0.0000 0.6250 (   276 PWs)   bands (ev):

     8.0809   8.9883   9.3238  10.4316  10.6654  12.5154  22.6949  23.7829
    28.9119  38.4818

     occupation numbers 
     1.0000   1.0000   1.0000   1.0000   1.0000   1.0020   0.0000   0.0000
     0.0000   0.0000

          k = 0.7500-0.2500 1.0000 (   275 PWs)   bands (ev):

     8.0731   8.6486   9.8297  10.7887  10.9414  12.9054  23.5917  24.3234
    24.7442  34.8999

     occupation numbers 
     1.0000   1.0000   1.0000   1.0000   1.0000   0.0005   0.0000   0.0000
     0.0000   0.0000

          k = 0.6875-0.1875 0.9375 (   278 PWs)   bands (ev):

     8.3135   8.6956   9.7088  10.6712  11.0733  14.2980  21.3404  23.4063
    24.2567  35.6170

     occupation numbers 
     1.0000   1.0000   1.0000   1.0000   1.0000   0.0000   0.0000   0.0000
     0.0000   0.0000

          k = 0.6250-0.1250 0.8750 (   273 PWs)   bands (ev):

     8.5046   8.7723   9.5702  10.5393  11.1141  16.0014  19.0414  22.4384
    24.6761  36.0116

     occupation numbers 
     1.0000   1.0000   1.0000   1.0000   1.0000   0.0000   0.0000   0.0000
     0.0000   0.0000

          k = 0.5625-0.0625 0.8125 (   274 PWs)   bands (ev):

     8.6833   8.8320   9.3934  10.4527  11.0603  16.8129  18.1111  21.7813
    25.4071  36.5087

     occupation numbers 
     1.0000   1.0000   1.0000   1.0000   1.0000   0.0000   0.0000   0.0000
     0.0000   0.0000

          k = 0.5000 0.0000 0.7500 (   276 PWs)   bands (ev):

     8.7399   8.9454   9.1845  10.4254  10.9452  15.1136  19.8457  21.7990
    26.3989  37.1596

     occupation numbers 
     1.0000   1.0000   1.0000   1.0000   1.0000   0.0000   0.0000   0.0000
     0.0000   0.0000

          k = 0.7500-0.1250 1.0000 (   277 PWs)   bands (ev):

     8.1366   8.5299  10.1490  10.8317  11.1548  14.5894  21.6488  22.9154
    23.7948  34.4758

     occupation numbers 
     1.0000   1.0000   1.0000   1.0000   1.0000   0.0000   0.0000   0.0000
     0.0000   0.0000

          k = 0.6875-0.0625 0.9375 (   277 PWs)   bands (ev):

     8.2953   8.6249   9.9282  10.6963  11.1953  16.1063  20.6984  20.9996
    23.8433  35.3606

     occupation numbers 
     1.0000   1.0000   1.0000   1.0000   1.0000   0.0000   0.0000   0.0000
     0.0000   0.0000

          k = 0.6250 0.0000 0.8750 (   274 PWs)   bands (ev):

     8.4787   8.7551   9.6492  10.5653  11.1519  17.4845  18.7480  20.6597
    24.4813  35.9140

     occupation numbers 
     1.0000   1.0000   1.0000   1.0000   1.0000   0.0000   0.0000   0.0000
     0.0000   0.0000

          k =-0.2500-1.0000 0.0000 (   276 PWs)   bands (ev):

     8.1256   8.4883  10.2909  10.8211  11.2348  15.7478  20.0757  22.6803
    23.5821  34.3372

     occupation numbers 
     1.0000   1.0000   1.0000   1.0000   1.0000   0.0000   0.0000   0.0000
     0.0000   0.0000

          k = 0.6250-0.2500 1.0000 (   278 PWs)   bands (ev):

     8.4572   8.8738   9.3353  10.5714  10.9398  13.9151  21.6313  22.9309
    25.3947  38.1363

     occupation numbers 
     1.0000   1.0000   1.0000   1.0000   1.0000   0.0000   0.0000   0.0000
     0.0000   0.0000

          k = 0.5625-0.1875 0.9375 (   275 PWs)   bands (ev):

     8.6241   8.9399   9.2607  10.4834  11.0591  15.4733  19.6100  22.8408
    24.2802  38.6031

     occupation numbers 
     1.0000   1.0000   1.0000   1.0000   1.0000   0.0000   0.0000   0.0000
     0.0000   0.0000

          k = 0.5000-0.1250 0.8750 (   274 PWs)   bands (ev):

     8.6870   8.9229   9.2771  10.4357  11.1053  16.9999  17.8313  23.3033
    23.5140  38.5998

     occupation numbers 
     1.0000   1.0000   1.0000   1.0000   1.0000   0.0000   0.0000   0.0000
     0.0000   0.0000

          k = 0.6250-0.1250 1.0000 (   273 PWs)   bands (ev):

     8.4451   8.7938   9.5623  10.6015  11.1533  15.8056  20.9473  22.1941
    22.5186  37.6895

     occupation numbers 
     1.0000   1.0000   1.0000   1.0000   1.0000   0.0000   0.0000   0.0000
     0.0000   0.0000

          k = 0.5625-0.0625 0.9375 (   274 PWs)   bands (ev):

     8.5430   8.9379   9.3824  10.5012  11.1942  17.5263  19.1450  21.4726
    22.5232  38.6654

     occupation numbers 
     1.0000   1.0000   1.0000   1.0000   1.0000   0.0000   0.0000   0.0000
     0.0000   0.0000

          k = 0.5000 0.0000 0.8750 (   272 PWs)   bands (ev):

     8.6155   9.0879   9.1688  10.4685  11.1520  17.1840  19.1206  21.3637
    23.2499  39.2300

     occupation numbers 
     1.0000   1.0000   1.0000   1.0000   1.0000   0.0000   0.0000   0.0000
     0.0000   0.0000

          k =-0.3750-1.0000 0.0000 (   272 PWs)   bands (ev):

     8.4087   8.7652   9.6771  10.5898  11.2352  17.1981  20.4912  20.7084
    22.2670  37.5418

     occupation numbers 
     1.0000   1.0000   1.0000   1.0000   1.0000   0.0000   0.0000   0.0000
     0.0000   0.0000

          k =-0.5000-1.0000 0.0000 (   280 PWs)   bands (ev):

     8.5485   9.1615   9.1615  10.4705  11.2339  18.8642  18.8642  20.9854
    21.4481  41.1088

     occupation numbers 
     1.0000   1.0000   1.0000   1.0000   1.0000   0.0000   0.0000   0.0000
     0.0000   0.0000

     the Fermi energy is    12.6415 ev

!    total energy              =    -213.09223379 Ry
     total all-electron energy =     -3309.972000 Ry
     estimated scf accuracy    <          5.4E-10 Ry
     smearing contrib. (-TS)   =       0.00004102 Ry
     internal energy E=F+TS    =    -213.09227481 Ry

     The total energy is F=E-TS. E is the sum of the following terms:
     one-electron contribution =     -28.04136632 Ry
     hartree contribution      =      30.64058910 Ry
     xc contribution           =     -44.63384154 Ry
     ewald contribution        =     -81.20902241 Ry
     one-center paw contrib.   =     -89.84863365 Ry
      -> PAW hartree energy AE =      97.75264180 Ry
      -> PAW hartree energy PS =     -97.05036455 Ry
      -> PAW xc energy AE      =    -134.89282532 Ry
      -> PAW xc energy PS      =      44.34191442 Ry
      -> total E_H with PAW    =      31.34286635 Ry
      -> total E_XC with PAW   =    -135.18475243 Ry

     convergence has been achieved in   7 iterations

     Writing all to output data dir ./tmp/cu_fcc.save/ :
     XML data file, charge density, pseudopotentials, collected wavefunctions

     init_run     :      0.22s CPU      0.24s WALL (       1 calls)
     electrons    :      1.20s CPU      1.38s WALL (       1 calls)

     Called by init_run:
     wfcinit      :      0.05s CPU      0.05s WALL (       1 calls)
     wfcinit:atom :      0.00s CPU      0.00s WALL (     145 calls)
     wfcinit:wfcr :      0.04s CPU      0.05s WALL (     145 calls)
     potinit      :      0.10s CPU      0.11s WALL (       1 calls)
     hinit0       :      0.07s CPU      0.07s WALL (       1 calls)

     Called by electrons:
     c_bands      :      0.77s CPU      0.90s WALL (       8 calls)
     sum_band     :      0.16s CPU      0.18s WALL (       8 calls)
     v_of_rho     :      0.01s CPU      0.01s WALL (       8 calls)
     v_h          :      0.00s CPU      0.00s WALL (       8 calls)
     v_xc         :      0.01s CPU      0.01s WALL (       8 calls)
     newd         :      0.03s CPU      0.03s WALL (       8 calls)
     PAW_pot      :      0.29s CPU      0.30s WALL (       8 calls)
     mix_rho      :      0.00s CPU      0.00s WALL (       8 calls)

     Called by c_bands:
     init_us_2    :      0.03s CPU      0.03s WALL (    2465 calls)
     cegterg      :      0.72s CPU      0.85s WALL (    1160 calls)

     Called by sum_band:
     sum_band:wei :      0.00s CPU      0.00s WALL (       8 calls)
     sum_band:loo :      0.12s CPU      0.15s WALL (       8 calls)
     sum_band:buf :      0.00s CPU      0.00s WALL (    1160 calls)
     sum_band:ini :      0.01s CPU      0.01s WALL (    1160 calls)
     sum_band:cal :      0.01s CPU      0.01s WALL (    1160 calls)
     sum_band:bec :      0.00s CPU      0.00s WALL (    1160 calls)
     addusdens    :      0.03s CPU      0.03s WALL (       8 calls)
                                        0.00s GPU  (       8 calls)
     addusd:skk   :      0.00s CPU      0.00s WALL (       8 calls)
                                        0.00s GPU  (       8 calls)

     Called by *egterg:
     cdiaghg      :      0.12s CPU      0.14s WALL (    3798 calls)
     cegterg:over :      0.02s CPU      0.02s WALL (    2783 calls)
     cegterg:upda :      0.01s CPU      0.01s WALL (    2783 calls)
     cegterg:last :      0.02s CPU      0.02s WALL (    2089 calls)
     h_psi        :      0.56s CPU      0.65s WALL (    4088 calls)
     s_psi        :      0.01s CPU      0.01s WALL (    4088 calls)
     g_psi        :      0.00s CPU      0.00s WALL (    2783 calls)

     Called by h_psi:
     h_psi:calbec :      0.02s CPU      0.02s WALL (    4088 calls)
     vloc_psi     :      0.52s CPU      0.60s WALL (    4088 calls)
                                        0.00s GPU  (    4088 calls)
     add_vuspsi   :      0.01s CPU      0.02s WALL (    4088 calls)

     General routines
     calbec       :      0.02s CPU      0.03s WALL (    5248 calls)
     fft          :      0.02s CPU      0.02s WALL (     103 calls)
     ffts         :      0.06s CPU      0.06s WALL (      16 calls)
     fftw         :      0.52s CPU      0.61s WALL (   71528 calls)
     interpolate  :      0.06s CPU      0.06s WALL (       8 calls)

     Parallel routines

     PAW routines
     PAW_pot      :      0.29s CPU      0.30s WALL (       8 calls)
     PAW_symme    :      0.00s CPU      0.00s WALL (      16 calls)

     PWSCF        :      1.47s CPU      1.67s WALL


   This run was terminated on:   2:56: 3   6Mar2026            

=------------------------------------------------------------------------------=
   JOB DONE.
=------------------------------------------------------------------------------=
