
     Program PWSCF v.7.5 starts on  6Mar2026 at  2:58:54 

     This program is part of the open-source Quantum ESPRESSO suite
     for quantum simulation of materials; please cite
         "P. Giannozzi et al., J. Phys.:Condens. Matter 21 395502 (2009);
         "P. Giannozzi et al., J. Phys.:Condens. Matter 29 465901 (2017);
         "P. Giannozzi et al., J. Chem. Phys. 152 154105 (2020);
          URL http://www.quantum-espresso.org", 
     in publications or presentations arising from this work. More details at
     http://www.quantum-espresso.org/quote

     Parallel version (MPI & OpenMP), running on       2 processor cores
     Number of MPI processes:                 2
     Threads/MPI process:                     1

     MPI processes distributed on     1 nodes
     4712 MiB available memory on the printing compute node when the environment starts

     Reading input from pw.in
Warning: card &CELL ignored

     Current dimensions of program PWSCF are:
     Max number of different atomic species (ntypx) = 10
     Max number of k-points (npk) =  40000
     Max angular momentum in pseudopotentials (lmaxx) =  4
     file Cu.pbe-dn-kjpaw_psl.1.0.0.UPF: wavefunction(s)  4S 3D renormalized

     R & G space division:  proc/nbgrp/npool/nimage =       2
     Subspace diagonalization in iterative solution of the eigenvalue problem:
     a serial algorithm will be used


     Parallelization info
     --------------------
     sticks:   dense  smooth     PW     G-vecs:    dense   smooth      PW
     Min         219     111     42                 3115     1114     264
     Max         220     112     43                 3116     1115     267
     Sum         439     223     85                 6231     2229     531

     Using Slab Decomposition



     bravais-lattice index     =            2
     lattice parameter (alat)  =       6.8314  a.u.
     unit-cell volume          =      79.7007 (a.u.)^3
     number of atoms/cell      =            1
     number of atomic types    =            1
     number of electrons       =        11.00
     number of Kohn-Sham states=           10
     kinetic-energy cutoff     =      35.0000  Ry
     charge density cutoff     =     280.0000  Ry
     scf convergence threshold =      1.0E-08
     mixing beta               =       0.7000
     number of iterations used =            8  plain     mixing
     Exchange-correlation= SLA  PW   PBX  PBC
                           (   1   4   3   4   0   0   0)

     celldm(1)=   6.831363  celldm(2)=   0.000000  celldm(3)=   0.000000
     celldm(4)=   0.000000  celldm(5)=   0.000000  celldm(6)=   0.000000

     crystal axes: (cart. coord. in units of alat)
               a(1) = (  -0.500000   0.000000   0.500000 )  
               a(2) = (   0.000000   0.500000   0.500000 )  
               a(3) = (  -0.500000   0.500000   0.000000 )  

     reciprocal axes: (cart. coord. in units 2 pi/alat)
               b(1) = ( -1.000000 -1.000000  1.000000 )  
               b(2) = (  1.000000  1.000000  1.000000 )  
               b(3) = ( -1.000000  1.000000 -1.000000 )  


     PseudoPot. # 1 for Cu read from file:
     ./Cu.pbe-dn-kjpaw_psl.1.0.0.UPF
     MD5 check sum: cfffd1f38ee05704b3e17f46f1730a6f
     Pseudo is Projector augmented-wave + core cor, Zval = 11.0
     Generated using &quot;atomic&quot; code by A. Dal Corso  v.6.3
     Shape of augmentation charge: PSQ
     Using radial grid of 1199 points,  6 beta functions with: 
                l(1) =   0
                l(2) =   0
                l(3) =   1
                l(4) =   1
                l(5) =   2
                l(6) =   2
     Q(r) pseudized with 0 coefficients 


     atomic species   valence    mass     pseudopotential
     Cu               11.00    63.54600     Cu( 1.00)

     48 Sym. Ops., with inversion, found


                                    s                        frac. trans.

      isym =  1     identity                                     

 cryst.   s( 1) = (     1          0          0      )
                  (     0          1          0      )
                  (     0          0          1      )

 cart.    s( 1) = (  1.0000000  0.0000000  0.0000000 )
                  (  0.0000000  1.0000000  0.0000000 )
                  (  0.0000000  0.0000000  1.0000000 )


      isym =  2     180 deg rotation - cart. axis [0,0,1]        

 cryst.   s( 2) = (     0          1         -1      )
                  (     1          0         -1      )
                  (     0          0         -1      )

 cart.    s( 2) = ( -1.0000000  0.0000000  0.0000000 )
                  (  0.0000000 -1.0000000  0.0000000 )
                  (  0.0000000  0.0000000  1.0000000 )


      isym =  3     180 deg rotation - cart. axis [0,1,0]        

 cryst.   s( 3) = (    -1          0          0      )
                  (    -1          0          1      )
                  (    -1          1          0      )

 cart.    s( 3) = ( -1.0000000  0.0000000  0.0000000 )
                  (  0.0000000  1.0000000  0.0000000 )
                  (  0.0000000  0.0000000 -1.0000000 )


      isym =  4     180 deg rotation - cart. axis [1,0,0]        

 cryst.   s( 4) = (     0         -1          1      )
                  (     0         -1          0      )
                  (     1         -1          0      )

 cart.    s( 4) = (  1.0000000  0.0000000  0.0000000 )
                  (  0.0000000 -1.0000000  0.0000000 )
                  (  0.0000000  0.0000000 -1.0000000 )


      isym =  5     180 deg rotation - cart. axis [1,1,0]        

 cryst.   s( 5) = (     0         -1          0      )
                  (    -1          0          0      )
                  (     0          0         -1      )

 cart.    s( 5) = (  0.0000000  1.0000000  0.0000000 )
                  (  1.0000000  0.0000000  0.0000000 )
                  (  0.0000000  0.0000000 -1.0000000 )


      isym =  6     180 deg rotation - cart. axis [1,-1,0]       

 cryst.   s( 6) = (    -1          0          1      )
                  (     0         -1          1      )
                  (     0          0          1      )

 cart.    s( 6) = (  0.0000000 -1.0000000  0.0000000 )
                  ( -1.0000000  0.0000000  0.0000000 )
                  (  0.0000000  0.0000000 -1.0000000 )


      isym =  7      90 deg rotation - cart. axis [0,0,-1]       

 cryst.   s( 7) = (     0          1          0      )
                  (     0          1         -1      )
                  (    -1          1          0      )

 cart.    s( 7) = (  0.0000000  1.0000000  0.0000000 )
                  ( -1.0000000  0.0000000  0.0000000 )
                  (  0.0000000  0.0000000  1.0000000 )


      isym =  8      90 deg rotation - cart. axis [0,0,1]        

 cryst.   s( 8) = (     1          0         -1      )
                  (     1          0          0      )
                  (     1         -1          0      )

 cart.    s( 8) = (  0.0000000 -1.0000000  0.0000000 )
                  (  1.0000000  0.0000000  0.0000000 )
                  (  0.0000000  0.0000000  1.0000000 )


      isym =  9     180 deg rotation - cart. axis [1,0,1]        

 cryst.   s( 9) = (    -1          0          0      )
                  (     0          0         -1      )
                  (     0         -1          0      )

 cart.    s( 9) = (  0.0000000  0.0000000  1.0000000 )
                  (  0.0000000 -1.0000000  0.0000000 )
                  (  1.0000000  0.0000000  0.0000000 )


      isym = 10     180 deg rotation - cart. axis [-1,0,1]       

 cryst.   s(10) = (     1          0          0      )
                  (     1         -1          0      )
                  (     1          0         -1      )

 cart.    s(10) = (  0.0000000  0.0000000 -1.0000000 )
                  (  0.0000000 -1.0000000  0.0000000 )
                  ( -1.0000000  0.0000000  0.0000000 )


      isym = 11      90 deg rotation - cart. axis [0,1,0]        

 cryst.   s(11) = (     0          1         -1      )
                  (    -1          1          0      )
                  (     0          1          0      )

 cart.    s(11) = (  0.0000000  0.0000000  1.0000000 )
                  (  0.0000000  1.0000000  0.0000000 )
                  ( -1.0000000  0.0000000  0.0000000 )


      isym = 12      90 deg rotation - cart. axis [0,-1,0]       

 cryst.   s(12) = (     0         -1          1      )
                  (     0          0          1      )
                  (    -1          0          1      )

 cart.    s(12) = (  0.0000000  0.0000000 -1.0000000 )
                  (  0.0000000  1.0000000  0.0000000 )
                  (  1.0000000  0.0000000  0.0000000 )


      isym = 13     180 deg rotation - cart. axis [0,1,1]        

 cryst.   s(13) = (    -1          1          0      )
                  (     0          1          0      )
                  (     0          1         -1      )

 cart.    s(13) = ( -1.0000000  0.0000000  0.0000000 )
                  (  0.0000000  0.0000000  1.0000000 )
                  (  0.0000000  1.0000000  0.0000000 )


      isym = 14     180 deg rotation - cart. axis [0,1,-1]       

 cryst.   s(14) = (     0          0         -1      )
                  (     0         -1          0      )
                  (    -1          0          0      )

 cart.    s(14) = ( -1.0000000  0.0000000  0.0000000 )
                  (  0.0000000  0.0000000 -1.0000000 )
                  (  0.0000000 -1.0000000  0.0000000 )


      isym = 15      90 deg rotation - cart. axis [-1,0,0]       

 cryst.   s(15) = (     0          0          1      )
                  (    -1          0          1      )
                  (     0         -1          1      )

 cart.    s(15) = (  1.0000000  0.0000000  0.0000000 )
                  (  0.0000000  0.0000000  1.0000000 )
                  (  0.0000000 -1.0000000  0.0000000 )


      isym = 16      90 deg rotation - cart. axis [1,0,0]        

 cryst.   s(16) = (     1         -1          0      )
                  (     1          0         -1      )
                  (     1          0          0      )

 cart.    s(16) = (  1.0000000  0.0000000  0.0000000 )
                  (  0.0000000  0.0000000 -1.0000000 )
                  (  0.0000000  1.0000000  0.0000000 )


      isym = 17     120 deg rotation - cart. axis [-1,-1,-1]     

 cryst.   s(17) = (    -1          0          1      )
                  (    -1          1          0      )
                  (    -1          0          0      )

 cart.    s(17) = (  0.0000000  1.0000000  0.0000000 )
                  (  0.0000000  0.0000000  1.0000000 )
                  (  1.0000000  0.0000000  0.0000000 )


      isym = 18     120 deg rotation - cart. axis [-1,1,1]       

 cryst.   s(18) = (     0          1          0      )
                  (     0          0          1      )
                  (     1          0          0      )

 cart.    s(18) = (  0.0000000 -1.0000000  0.0000000 )
                  (  0.0000000  0.0000000  1.0000000 )
                  ( -1.0000000  0.0000000  0.0000000 )


      isym = 19     120 deg rotation - cart. axis [1,1,-1]       

 cryst.   s(19) = (     1          0         -1      )
                  (     0          0         -1      )
                  (     0          1         -1      )

 cart.    s(19) = (  0.0000000  1.0000000  0.0000000 )
                  (  0.0000000  0.0000000 -1.0000000 )
                  ( -1.0000000  0.0000000  0.0000000 )


      isym = 20     120 deg rotation - cart. axis [1,-1,1]       

 cryst.   s(20) = (     0         -1          0      )
                  (     1         -1          0      )
                  (     0         -1          1      )

 cart.    s(20) = (  0.0000000 -1.0000000  0.0000000 )
                  (  0.0000000  0.0000000 -1.0000000 )
                  (  1.0000000  0.0000000  0.0000000 )


      isym = 21     120 deg rotation - cart. axis [1,1,1]        

 cryst.   s(21) = (     0          0         -1      )
                  (     0          1         -1      )
                  (     1          0         -1      )

 cart.    s(21) = (  0.0000000  0.0000000  1.0000000 )
                  (  1.0000000  0.0000000  0.0000000 )
                  (  0.0000000  1.0000000  0.0000000 )


      isym = 22     120 deg rotation - cart. axis [-1,1,-1]      

 cryst.   s(22) = (    -1          1          0      )
                  (    -1          0          0      )
                  (    -1          0          1      )

 cart.    s(22) = (  0.0000000  0.0000000  1.0000000 )
                  ( -1.0000000  0.0000000  0.0000000 )
                  (  0.0000000 -1.0000000  0.0000000 )


      isym = 23     120 deg rotation - cart. axis [1,-1,-1]      

 cryst.   s(23) = (     0          0          1      )
                  (     1          0          0      )
                  (     0          1          0      )

 cart.    s(23) = (  0.0000000  0.0000000 -1.0000000 )
                  ( -1.0000000  0.0000000  0.0000000 )
                  (  0.0000000  1.0000000  0.0000000 )


      isym = 24     120 deg rotation - cart. axis [-1,-1,1]      

 cryst.   s(24) = (     1         -1          0      )
                  (     0         -1          1      )
                  (     0         -1          0      )

 cart.    s(24) = (  0.0000000  0.0000000 -1.0000000 )
                  (  1.0000000  0.0000000  0.0000000 )
                  (  0.0000000 -1.0000000  0.0000000 )


      isym = 25     inversion                                    

 cryst.   s(25) = (    -1          0          0      )
                  (     0         -1          0      )
                  (     0          0         -1      )

 cart.    s(25) = ( -1.0000000  0.0000000  0.0000000 )
                  (  0.0000000 -1.0000000  0.0000000 )
                  (  0.0000000  0.0000000 -1.0000000 )


      isym = 26     inv. 180 deg rotation - cart. axis [0,0,1]   

 cryst.   s(26) = (     0         -1          1      )
                  (    -1          0          1      )
                  (     0          0          1      )

 cart.    s(26) = (  1.0000000  0.0000000  0.0000000 )
                  (  0.0000000  1.0000000  0.0000000 )
                  (  0.0000000  0.0000000 -1.0000000 )


      isym = 27     inv. 180 deg rotation - cart. axis [0,1,0]   

 cryst.   s(27) = (     1          0          0      )
                  (     1          0         -1      )
                  (     1         -1          0      )

 cart.    s(27) = (  1.0000000  0.0000000  0.0000000 )
                  (  0.0000000 -1.0000000  0.0000000 )
                  (  0.0000000  0.0000000  1.0000000 )


      isym = 28     inv. 180 deg rotation - cart. axis [1,0,0]   

 cryst.   s(28) = (     0          1         -1      )
                  (     0          1          0      )
                  (    -1          1          0      )

 cart.    s(28) = ( -1.0000000  0.0000000  0.0000000 )
                  (  0.0000000  1.0000000  0.0000000 )
                  (  0.0000000  0.0000000  1.0000000 )


      isym = 29     inv. 180 deg rotation - cart. axis [1,1,0]   

 cryst.   s(29) = (     0          1          0      )
                  (     1          0          0      )
                  (     0          0          1      )

 cart.    s(29) = (  0.0000000 -1.0000000  0.0000000 )
                  ( -1.0000000  0.0000000  0.0000000 )
                  (  0.0000000  0.0000000  1.0000000 )


      isym = 30     inv. 180 deg rotation - cart. axis [1,-1,0]  

 cryst.   s(30) = (     1          0         -1      )
                  (     0          1         -1      )
                  (     0          0         -1      )

 cart.    s(30) = (  0.0000000  1.0000000  0.0000000 )
                  (  1.0000000  0.0000000  0.0000000 )
                  (  0.0000000  0.0000000  1.0000000 )


      isym = 31     inv.  90 deg rotation - cart. axis [0,0,-1]  

 cryst.   s(31) = (     0         -1          0      )
                  (     0         -1          1      )
                  (     1         -1          0      )

 cart.    s(31) = (  0.0000000 -1.0000000  0.0000000 )
                  (  1.0000000  0.0000000  0.0000000 )
                  (  0.0000000  0.0000000 -1.0000000 )


      isym = 32     inv.  90 deg rotation - cart. axis [0,0,1]   

 cryst.   s(32) = (    -1          0          1      )
                  (    -1          0          0      )
                  (    -1          1          0      )

 cart.    s(32) = (  0.0000000  1.0000000  0.0000000 )
                  ( -1.0000000  0.0000000  0.0000000 )
                  (  0.0000000  0.0000000 -1.0000000 )


      isym = 33     inv. 180 deg rotation - cart. axis [1,0,1]   

 cryst.   s(33) = (     1          0          0      )
                  (     0          0          1      )
                  (     0          1          0      )

 cart.    s(33) = (  0.0000000  0.0000000 -1.0000000 )
                  (  0.0000000  1.0000000  0.0000000 )
                  ( -1.0000000  0.0000000  0.0000000 )


      isym = 34     inv. 180 deg rotation - cart. axis [-1,0,1]  

 cryst.   s(34) = (    -1          0          0      )
                  (    -1          1          0      )
                  (    -1          0          1      )

 cart.    s(34) = (  0.0000000  0.0000000  1.0000000 )
                  (  0.0000000  1.0000000  0.0000000 )
                  (  1.0000000  0.0000000  0.0000000 )


      isym = 35     inv.  90 deg rotation - cart. axis [0,1,0]   

 cryst.   s(35) = (     0         -1          1      )
                  (     1         -1          0      )
                  (     0         -1          0      )

 cart.    s(35) = (  0.0000000  0.0000000 -1.0000000 )
                  (  0.0000000 -1.0000000  0.0000000 )
                  (  1.0000000  0.0000000  0.0000000 )


      isym = 36     inv.  90 deg rotation - cart. axis [0,-1,0]  

 cryst.   s(36) = (     0          1         -1      )
                  (     0          0         -1      )
                  (     1          0         -1      )

 cart.    s(36) = (  0.0000000  0.0000000  1.0000000 )
                  (  0.0000000 -1.0000000  0.0000000 )
                  ( -1.0000000  0.0000000  0.0000000 )


      isym = 37     inv. 180 deg rotation - cart. axis [0,1,1]   

 cryst.   s(37) = (     1         -1          0      )
                  (     0         -1          0      )
                  (     0         -1          1      )

 cart.    s(37) = (  1.0000000  0.0000000  0.0000000 )
                  (  0.0000000  0.0000000 -1.0000000 )
                  (  0.0000000 -1.0000000  0.0000000 )


      isym = 38     inv. 180 deg rotation - cart. axis [0,1,-1]  

 cryst.   s(38) = (     0          0          1      )
                  (     0          1          0      )
                  (     1          0          0      )

 cart.    s(38) = (  1.0000000  0.0000000  0.0000000 )
                  (  0.0000000  0.0000000  1.0000000 )
                  (  0.0000000  1.0000000  0.0000000 )


      isym = 39     inv.  90 deg rotation - cart. axis [-1,0,0]  

 cryst.   s(39) = (     0          0         -1      )
                  (     1          0         -1      )
                  (     0          1         -1      )

 cart.    s(39) = ( -1.0000000  0.0000000  0.0000000 )
                  (  0.0000000  0.0000000 -1.0000000 )
                  (  0.0000000  1.0000000  0.0000000 )


      isym = 40     inv.  90 deg rotation - cart. axis [1,0,0]   

 cryst.   s(40) = (    -1          1          0      )
                  (    -1          0          1      )
                  (    -1          0          0      )

 cart.    s(40) = ( -1.0000000  0.0000000  0.0000000 )
                  (  0.0000000  0.0000000  1.0000000 )
                  (  0.0000000 -1.0000000  0.0000000 )


      isym = 41     inv. 120 deg rotation - cart. axis [-1,-1,-1]

 cryst.   s(41) = (     1          0         -1      )
                  (     1         -1          0      )
                  (     1          0          0      )

 cart.    s(41) = (  0.0000000 -1.0000000  0.0000000 )
                  (  0.0000000  0.0000000 -1.0000000 )
                  ( -1.0000000  0.0000000  0.0000000 )


      isym = 42     inv. 120 deg rotation - cart. axis [-1,1,1]  

 cryst.   s(42) = (     0         -1          0      )
                  (     0          0         -1      )
                  (    -1          0          0      )

 cart.    s(42) = (  0.0000000  1.0000000  0.0000000 )
                  (  0.0000000  0.0000000 -1.0000000 )
                  (  1.0000000  0.0000000  0.0000000 )


      isym = 43     inv. 120 deg rotation - cart. axis [1,1,-1]  

 cryst.   s(43) = (    -1          0          1      )
                  (     0          0          1      )
                  (     0         -1          1      )

 cart.    s(43) = (  0.0000000 -1.0000000  0.0000000 )
                  (  0.0000000  0.0000000  1.0000000 )
                  (  1.0000000  0.0000000  0.0000000 )


      isym = 44     inv. 120 deg rotation - cart. axis [1,-1,1]  

 cryst.   s(44) = (     0          1          0      )
                  (    -1          1          0      )
                  (     0          1         -1      )

 cart.    s(44) = (  0.0000000  1.0000000  0.0000000 )
                  (  0.0000000  0.0000000  1.0000000 )
                  ( -1.0000000  0.0000000  0.0000000 )


      isym = 45     inv. 120 deg rotation - cart. axis [1,1,1]   

 cryst.   s(45) = (     0          0          1      )
                  (     0         -1          1      )
                  (    -1          0          1      )

 cart.    s(45) = (  0.0000000  0.0000000 -1.0000000 )
                  ( -1.0000000  0.0000000  0.0000000 )
                  (  0.0000000 -1.0000000  0.0000000 )


      isym = 46     inv. 120 deg rotation - cart. axis [-1,1,-1] 

 cryst.   s(46) = (     1         -1          0      )
                  (     1          0          0      )
                  (     1          0         -1      )

 cart.    s(46) = (  0.0000000  0.0000000 -1.0000000 )
                  (  1.0000000  0.0000000  0.0000000 )
                  (  0.0000000  1.0000000  0.0000000 )


      isym = 47     inv. 120 deg rotation - cart. axis [1,-1,-1] 

 cryst.   s(47) = (     0          0         -1      )
                  (    -1          0          0      )
                  (     0         -1          0      )

 cart.    s(47) = (  0.0000000  0.0000000  1.0000000 )
                  (  1.0000000  0.0000000  0.0000000 )
                  (  0.0000000 -1.0000000  0.0000000 )


      isym = 48     inv. 120 deg rotation - cart. axis [-1,-1,1] 

 cryst.   s(48) = (    -1          1          0      )
                  (     0          1         -1      )
                  (     0          1          0      )

 cart.    s(48) = (  0.0000000  0.0000000  1.0000000 )
                  ( -1.0000000  0.0000000  0.0000000 )
                  (  0.0000000  1.0000000  0.0000000 )


     point group O_h (m-3m) 
     there are 10 classes
     the character table:

       E     8C3   3C2   6C4   6C2'  i     8S6   3s_h  6S4   6s_d 
A_1g   1.00  1.00  1.00  1.00  1.00  1.00  1.00  1.00  1.00  1.00
A_2g   1.00  1.00  1.00 -1.00 -1.00  1.00  1.00  1.00 -1.00 -1.00
E_g    2.00 -1.00  2.00  0.00  0.00  2.00 -1.00  2.00  0.00  0.00
T_1g   3.00  0.00 -1.00  1.00 -1.00  3.00  0.00 -1.00  1.00 -1.00
T_2g   3.00  0.00 -1.00 -1.00  1.00  3.00  0.00 -1.00 -1.00  1.00
A_1u   1.00  1.00  1.00  1.00  1.00 -1.00 -1.00 -1.00 -1.00 -1.00
A_2u   1.00  1.00  1.00 -1.00 -1.00 -1.00 -1.00 -1.00  1.00  1.00
E_u    2.00 -1.00  2.00  0.00  0.00 -2.00  1.00 -2.00  0.00  0.00
T_1u   3.00  0.00 -1.00  1.00 -1.00 -3.00  0.00  1.00 -1.00  1.00
T_2u   3.00  0.00 -1.00 -1.00  1.00 -3.00  0.00  1.00  1.00 -1.00

     the symmetry operations in each class and the name of the first element:

     E        1
          identity                                               
     8C3     17   19   20   18   24   21   22   23
          120 deg rotation - cart. axis [-1,-1,-1]               
     3C2      2    4    3
          180 deg rotation - cart. axis [0,0,1]                  
     6C4      7    8   15   16   12   11
           90 deg rotation - cart. axis [0,0,-1]                 
     6C2'     5    6   14   13   10    9
          180 deg rotation - cart. axis [1,1,0]                  
     i       25
          inversion                                              
     8S6     41   43   44   42   48   45   46   47
          inv. 120 deg rotation - cart. axis [-1,-1,-1]          
     3s_h    26   28   27
          inv. 180 deg rotation - cart. axis [0,0,1]             
     6S4     31   32   39   40   36   35
          inv.  90 deg rotation - cart. axis [0,0,-1]            
     6s_d    29   30   38   37   34   33
          inv. 180 deg rotation - cart. axis [1,1,0]             

   Cartesian axes

     site n.     atom                  positions (alat units)
         1        Cu     tau(   1) = (   0.0000000   0.0000000   0.0000000  )

   Crystallographic axes

     site n.     atom                  positions (cryst. coord.)
         1        Cu     tau(   1) = (  0.0000000  0.0000000  0.0000000  )

     number of k points=   195  Marzari-Vanderbilt smearing, width (Ry)=  0.0100
                       cart. coord. in units 2pi/alat
        k(    1) = (   0.0000000   0.0000000   0.0000000), wk =   0.0003429
        k(    2) = (  -0.0555556   0.0555556  -0.0555556), wk =   0.0027435
        k(    3) = (  -0.1111111   0.1111111  -0.1111111), wk =   0.0027435
        k(    4) = (  -0.1666667   0.1666667  -0.1666667), wk =   0.0027435
        k(    5) = (  -0.2222222   0.2222222  -0.2222222), wk =   0.0027435
        k(    6) = (  -0.2777778   0.2777778  -0.2777778), wk =   0.0027435
        k(    7) = (  -0.3333333   0.3333333  -0.3333333), wk =   0.0027435
        k(    8) = (  -0.3888889   0.3888889  -0.3888889), wk =   0.0027435
        k(    9) = (  -0.4444444   0.4444444  -0.4444444), wk =   0.0027435
        k(   10) = (   0.5000000  -0.5000000   0.5000000), wk =   0.0013717
        k(   11) = (   0.0000000   0.1111111   0.0000000), wk =   0.0020576
        k(   12) = (  -0.0555556   0.1666667  -0.0555556), wk =   0.0082305
        k(   13) = (  -0.1111111   0.2222222  -0.1111111), wk =   0.0082305
        k(   14) = (  -0.1666667   0.2777778  -0.1666667), wk =   0.0082305
        k(   15) = (  -0.2222222   0.3333333  -0.2222222), wk =   0.0082305
        k(   16) = (  -0.2777778   0.3888889  -0.2777778), wk =   0.0082305
        k(   17) = (  -0.3333333   0.4444444  -0.3333333), wk =   0.0082305
        k(   18) = (  -0.3888889   0.5000000  -0.3888889), wk =   0.0082305
        k(   19) = (   0.5555556  -0.4444444   0.5555556), wk =   0.0082305
        k(   20) = (   0.5000000  -0.3888889   0.5000000), wk =   0.0082305
        k(   21) = (   0.4444444  -0.3333333   0.4444444), wk =   0.0082305
        k(   22) = (   0.3888889  -0.2777778   0.3888889), wk =   0.0082305
        k(   23) = (   0.3333333  -0.2222222   0.3333333), wk =   0.0082305
        k(   24) = (   0.2777778  -0.1666667   0.2777778), wk =   0.0082305
        k(   25) = (   0.2222222  -0.1111111   0.2222222), wk =   0.0082305
        k(   26) = (   0.1666667  -0.0555556   0.1666667), wk =   0.0082305
        k(   27) = (   0.1111111  -0.0000000   0.1111111), wk =   0.0041152
        k(   28) = (   0.0000000   0.2222222   0.0000000), wk =   0.0020576
        k(   29) = (  -0.0555556   0.2777778  -0.0555556), wk =   0.0082305
        k(   30) = (  -0.1111111   0.3333333  -0.1111111), wk =   0.0082305
        k(   31) = (  -0.1666667   0.3888889  -0.1666667), wk =   0.0082305
        k(   32) = (  -0.2222222   0.4444444  -0.2222222), wk =   0.0082305
        k(   33) = (  -0.2777778   0.5000000  -0.2777778), wk =   0.0082305
        k(   34) = (  -0.3333333   0.5555556  -0.3333333), wk =   0.0082305
        k(   35) = (   0.6111111  -0.3888889   0.6111111), wk =   0.0082305
        k(   36) = (   0.5555556  -0.3333333   0.5555556), wk =   0.0082305
        k(   37) = (   0.5000000  -0.2777778   0.5000000), wk =   0.0082305
        k(   38) = (   0.4444444  -0.2222222   0.4444444), wk =   0.0082305
        k(   39) = (   0.3888889  -0.1666667   0.3888889), wk =   0.0082305
        k(   40) = (   0.3333333  -0.1111111   0.3333333), wk =   0.0082305
        k(   41) = (   0.2777778  -0.0555556   0.2777778), wk =   0.0082305
        k(   42) = (   0.2222222  -0.0000000   0.2222222), wk =   0.0041152
        k(   43) = (   0.0000000   0.3333333   0.0000000), wk =   0.0020576
        k(   44) = (  -0.0555556   0.3888889  -0.0555556), wk =   0.0082305
        k(   45) = (  -0.1111111   0.4444444  -0.1111111), wk =   0.0082305
        k(   46) = (  -0.1666667   0.5000000  -0.1666667), wk =   0.0082305
        k(   47) = (  -0.2222222   0.5555556  -0.2222222), wk =   0.0082305
        k(   48) = (  -0.2777778   0.6111111  -0.2777778), wk =   0.0082305
        k(   49) = (   0.6666667  -0.3333333   0.6666667), wk =   0.0082305
        k(   50) = (   0.6111111  -0.2777778   0.6111111), wk =   0.0082305
        k(   51) = (   0.5555556  -0.2222222   0.5555556), wk =   0.0082305
        k(   52) = (   0.5000000  -0.1666667   0.5000000), wk =   0.0082305
        k(   53) = (   0.4444444  -0.1111111   0.4444444), wk =   0.0082305
        k(   54) = (   0.3888889  -0.0555556   0.3888889), wk =   0.0082305
        k(   55) = (   0.3333333   0.0000000   0.3333333), wk =   0.0041152
        k(   56) = (   0.0000000   0.4444444   0.0000000), wk =   0.0020576
        k(   57) = (  -0.0555556   0.5000000  -0.0555556), wk =   0.0082305
        k(   58) = (  -0.1111111   0.5555556  -0.1111111), wk =   0.0082305
        k(   59) = (  -0.1666667   0.6111111  -0.1666667), wk =   0.0082305
        k(   60) = (  -0.2222222   0.6666667  -0.2222222), wk =   0.0082305
        k(   61) = (   0.7222222  -0.2777778   0.7222222), wk =   0.0082305
        k(   62) = (   0.6666667  -0.2222222   0.6666667), wk =   0.0082305
        k(   63) = (   0.6111111  -0.1666667   0.6111111), wk =   0.0082305
        k(   64) = (   0.5555556  -0.1111111   0.5555556), wk =   0.0082305
        k(   65) = (   0.5000000  -0.0555556   0.5000000), wk =   0.0082305
        k(   66) = (   0.4444444   0.0000000   0.4444444), wk =   0.0041152
        k(   67) = (   0.0000000   0.5555556   0.0000000), wk =   0.0020576
        k(   68) = (  -0.0555556   0.6111111  -0.0555556), wk =   0.0082305
        k(   69) = (  -0.1111111   0.6666667  -0.1111111), wk =   0.0082305
        k(   70) = (  -0.1666667   0.7222222  -0.1666667), wk =   0.0082305
        k(   71) = (   0.7777778  -0.2222222   0.7777778), wk =   0.0082305
        k(   72) = (   0.7222222  -0.1666667   0.7222222), wk =   0.0082305
        k(   73) = (   0.6666667  -0.1111111   0.6666667), wk =   0.0082305
        k(   74) = (   0.6111111  -0.0555556   0.6111111), wk =   0.0082305
        k(   75) = (   0.5555556   0.0000000   0.5555556), wk =   0.0041152
        k(   76) = (   0.0000000   0.6666667   0.0000000), wk =   0.0020576
        k(   77) = (  -0.0555556   0.7222222  -0.0555556), wk =   0.0082305
        k(   78) = (  -0.1111111   0.7777778  -0.1111111), wk =   0.0082305
        k(   79) = (   0.8333333  -0.1666667   0.8333333), wk =   0.0082305
        k(   80) = (   0.7777778  -0.1111111   0.7777778), wk =   0.0082305
        k(   81) = (   0.7222222  -0.0555556   0.7222222), wk =   0.0082305
        k(   82) = (   0.6666667  -0.0000000   0.6666667), wk =   0.0041152
        k(   83) = (   0.0000000   0.7777778   0.0000000), wk =   0.0020576
        k(   84) = (  -0.0555556   0.8333333  -0.0555556), wk =   0.0082305
        k(   85) = (   0.8888889  -0.1111111   0.8888889), wk =   0.0082305
        k(   86) = (   0.8333333  -0.0555556   0.8333333), wk =   0.0082305
        k(   87) = (   0.7777778   0.0000000   0.7777778), wk =   0.0041152
        k(   88) = (   0.0000000   0.8888889   0.0000000), wk =   0.0020576
        k(   89) = (   0.9444444  -0.0555556   0.9444444), wk =   0.0082305
        k(   90) = (   0.8888889   0.0000000   0.8888889), wk =   0.0041152
        k(   91) = (   0.0000000  -1.0000000   0.0000000), wk =   0.0010288
        k(   92) = (  -0.1111111   0.2222222   0.0000000), wk =   0.0082305
        k(   93) = (  -0.1666667   0.2777778  -0.0555556), wk =   0.0164609
        k(   94) = (  -0.2222222   0.3333333  -0.1111111), wk =   0.0164609
        k(   95) = (  -0.2777778   0.3888889  -0.1666667), wk =   0.0164609
        k(   96) = (  -0.3333333   0.4444444  -0.2222222), wk =   0.0164609
        k(   97) = (  -0.3888889   0.5000000  -0.2777778), wk =   0.0164609
        k(   98) = (   0.5555556  -0.4444444   0.6666667), wk =   0.0164609
        k(   99) = (   0.5000000  -0.3888889   0.6111111), wk =   0.0082305
        k(  100) = (  -0.1111111   0.3333333   0.0000000), wk =   0.0082305
        k(  101) = (  -0.1666667   0.3888889  -0.0555556), wk =   0.0164609
        k(  102) = (  -0.2222222   0.4444444  -0.1111111), wk =   0.0164609
        k(  103) = (  -0.2777778   0.5000000  -0.1666667), wk =   0.0164609
        k(  104) = (  -0.3333333   0.5555556  -0.2222222), wk =   0.0164609
        k(  105) = (   0.6111111  -0.3888889   0.7222222), wk =   0.0164609
        k(  106) = (   0.5555556  -0.3333333   0.6666667), wk =   0.0164609
        k(  107) = (   0.5000000  -0.2777778   0.6111111), wk =   0.0164609
        k(  108) = (   0.4444444  -0.2222222   0.5555556), wk =   0.0164609
        k(  109) = (   0.3888889  -0.1666667   0.5000000), wk =   0.0164609
        k(  110) = (   0.3333333  -0.1111111   0.4444444), wk =   0.0164609
        k(  111) = (   0.2777778  -0.0555556   0.3888889), wk =   0.0164609
        k(  112) = (   0.2222222  -0.0000000   0.3333333), wk =   0.0082305
        k(  113) = (  -0.1111111   0.4444444   0.0000000), wk =   0.0082305
        k(  114) = (  -0.1666667   0.5000000  -0.0555556), wk =   0.0164609
        k(  115) = (  -0.2222222   0.5555556  -0.1111111), wk =   0.0164609
        k(  116) = (  -0.2777778   0.6111111  -0.1666667), wk =   0.0164609
        k(  117) = (   0.6666667  -0.3333333   0.7777778), wk =   0.0164609
        k(  118) = (   0.6111111  -0.2777778   0.7222222), wk =   0.0164609
        k(  119) = (   0.5555556  -0.2222222   0.6666667), wk =   0.0164609
        k(  120) = (   0.5000000  -0.1666667   0.6111111), wk =   0.0164609
        k(  121) = (   0.4444444  -0.1111111   0.5555556), wk =   0.0164609
        k(  122) = (   0.3888889  -0.0555556   0.5000000), wk =   0.0164609
        k(  123) = (   0.3333333   0.0000000   0.4444444), wk =   0.0082305
        k(  124) = (  -0.1111111   0.5555556   0.0000000), wk =   0.0082305
        k(  125) = (  -0.1666667   0.6111111  -0.0555556), wk =   0.0164609
        k(  126) = (  -0.2222222   0.6666667  -0.1111111), wk =   0.0164609
        k(  127) = (   0.7222222  -0.2777778   0.8333333), wk =   0.0164609
        k(  128) = (   0.6666667  -0.2222222   0.7777778), wk =   0.0164609
        k(  129) = (   0.6111111  -0.1666667   0.7222222), wk =   0.0164609
        k(  130) = (   0.5555556  -0.1111111   0.6666667), wk =   0.0164609
        k(  131) = (   0.5000000  -0.0555556   0.6111111), wk =   0.0164609
        k(  132) = (   0.4444444   0.0000000   0.5555556), wk =   0.0082305
        k(  133) = (  -0.1111111   0.6666667  -0.0000000), wk =   0.0082305
        k(  134) = (  -0.1666667   0.7222222  -0.0555556), wk =   0.0164609
        k(  135) = (   0.7777778  -0.2222222   0.8888889), wk =   0.0164609
        k(  136) = (   0.7222222  -0.1666667   0.8333333), wk =   0.0164609
        k(  137) = (   0.6666667  -0.1111111   0.7777778), wk =   0.0164609
        k(  138) = (   0.6111111  -0.0555556   0.7222222), wk =   0.0164609
        k(  139) = (   0.5555556   0.0000000   0.6666667), wk =   0.0082305
        k(  140) = (  -0.1111111   0.7777778   0.0000000), wk =   0.0082305
        k(  141) = (   0.8333333  -0.1666667   0.9444444), wk =   0.0164609
        k(  142) = (   0.7777778  -0.1111111   0.8888889), wk =   0.0164609
        k(  143) = (   0.7222222  -0.0555556   0.8333333), wk =   0.0164609
        k(  144) = (   0.6666667   0.0000000   0.7777778), wk =   0.0082305
        k(  145) = (   0.8888889  -0.1111111   1.0000000), wk =   0.0082305
        k(  146) = (   0.8333333  -0.0555556   0.9444444), wk =   0.0164609
        k(  147) = (   0.7777778   0.0000000   0.8888889), wk =   0.0082305
        k(  148) = (  -0.1111111  -1.0000000   0.0000000), wk =   0.0041152
        k(  149) = (  -0.2222222   0.4444444   0.0000000), wk =   0.0082305
        k(  150) = (  -0.2777778   0.5000000  -0.0555556), wk =   0.0164609
        k(  151) = (  -0.3333333   0.5555556  -0.1111111), wk =   0.0164609
        k(  152) = (   0.6111111  -0.3888889   0.8333333), wk =   0.0164609
        k(  153) = (   0.5555556  -0.3333333   0.7777778), wk =   0.0164609
        k(  154) = (   0.5000000  -0.2777778   0.7222222), wk =   0.0082305
        k(  155) = (  -0.2222222   0.5555556   0.0000000), wk =   0.0082305
        k(  156) = (  -0.2777778   0.6111111  -0.0555556), wk =   0.0164609
        k(  157) = (   0.6666667  -0.3333333   0.8888889), wk =   0.0164609
        k(  158) = (   0.6111111  -0.2777778   0.8333333), wk =   0.0164609
        k(  159) = (   0.5555556  -0.2222222   0.7777778), wk =   0.0164609
        k(  160) = (   0.5000000  -0.1666667   0.7222222), wk =   0.0164609
        k(  161) = (   0.4444444  -0.1111111   0.6666667), wk =   0.0164609
        k(  162) = (   0.3888889  -0.0555556   0.6111111), wk =   0.0164609
        k(  163) = (   0.3333333   0.0000000   0.5555556), wk =   0.0082305
        k(  164) = (  -0.2222222   0.6666667   0.0000000), wk =   0.0082305
        k(  165) = (   0.7222222  -0.2777778   0.9444444), wk =   0.0164609
        k(  166) = (   0.6666667  -0.2222222   0.8888889), wk =   0.0164609
        k(  167) = (   0.6111111  -0.1666667   0.8333333), wk =   0.0164609
        k(  168) = (   0.5555556  -0.1111111   0.7777778), wk =   0.0164609
        k(  169) = (   0.5000000  -0.0555556   0.7222222), wk =   0.0164609
        k(  170) = (   0.4444444   0.0000000   0.6666667), wk =   0.0082305
        k(  171) = (   0.7777778  -0.2222222   1.0000000), wk =   0.0082305
        k(  172) = (   0.7222222  -0.1666667   0.9444444), wk =   0.0164609
        k(  173) = (   0.6666667  -0.1111111   0.8888889), wk =   0.0164609
        k(  174) = (   0.6111111  -0.0555556   0.8333333), wk =   0.0164609
        k(  175) = (   0.5555556   0.0000000   0.7777778), wk =   0.0082305
        k(  176) = (   0.7777778  -0.1111111   1.0000000), wk =   0.0082305
        k(  177) = (   0.7222222  -0.0555556   0.9444444), wk =   0.0164609
        k(  178) = (   0.6666667  -0.0000000   0.8888889), wk =   0.0082305
        k(  179) = (  -0.2222222  -1.0000000  -0.0000000), wk =   0.0041152
        k(  180) = (   0.6666667  -0.3333333   1.0000000), wk =   0.0082305
        k(  181) = (   0.6111111  -0.2777778   0.9444444), wk =   0.0164609
        k(  182) = (   0.5555556  -0.2222222   0.8888889), wk =   0.0164609
        k(  183) = (   0.5000000  -0.1666667   0.8333333), wk =   0.0082305
        k(  184) = (   0.6666667  -0.2222222   1.0000000), wk =   0.0082305
        k(  185) = (   0.6111111  -0.1666667   0.9444444), wk =   0.0164609
        k(  186) = (   0.5555556  -0.1111111   0.8888889), wk =   0.0164609
        k(  187) = (   0.5000000  -0.0555556   0.8333333), wk =   0.0164609
        k(  188) = (   0.4444444   0.0000000   0.7777778), wk =   0.0082305
        k(  189) = (   0.6666667  -0.1111111   1.0000000), wk =   0.0082305
        k(  190) = (   0.6111111  -0.0555556   0.9444444), wk =   0.0164609
        k(  191) = (   0.5555556   0.0000000   0.8888889), wk =   0.0082305
        k(  192) = (  -0.3333333  -1.0000000   0.0000000), wk =   0.0041152
        k(  193) = (   0.5555556  -0.1111111   1.0000000), wk =   0.0082305
        k(  194) = (   0.5000000  -0.0555556   0.9444444), wk =   0.0082305
        k(  195) = (  -0.4444444  -1.0000000   0.0000000), wk =   0.0041152

                       cryst. coord.
        k(    1) = (   0.0000000   0.0000000   0.0000000), wk =   0.0003429
        k(    2) = (   0.0000000   0.0000000   0.0555556), wk =   0.0027435
        k(    3) = (   0.0000000   0.0000000   0.1111111), wk =   0.0027435
        k(    4) = (   0.0000000   0.0000000   0.1666667), wk =   0.0027435
        k(    5) = (   0.0000000   0.0000000   0.2222222), wk =   0.0027435
        k(    6) = (   0.0000000   0.0000000   0.2777778), wk =   0.0027435
        k(    7) = (   0.0000000   0.0000000   0.3333333), wk =   0.0027435
        k(    8) = (   0.0000000   0.0000000   0.3888889), wk =   0.0027435
        k(    9) = (   0.0000000   0.0000000   0.4444444), wk =   0.0027435
        k(   10) = (   0.0000000   0.0000000  -0.5000000), wk =   0.0013717
        k(   11) = (   0.0000000   0.0555556   0.0555556), wk =   0.0020576
        k(   12) = (   0.0000000   0.0555556   0.1111111), wk =   0.0082305
        k(   13) = (   0.0000000   0.0555556   0.1666667), wk =   0.0082305
        k(   14) = (   0.0000000   0.0555556   0.2222222), wk =   0.0082305
        k(   15) = (   0.0000000   0.0555556   0.2777778), wk =   0.0082305
        k(   16) = (   0.0000000   0.0555556   0.3333333), wk =   0.0082305
        k(   17) = (   0.0000000   0.0555556   0.3888889), wk =   0.0082305
        k(   18) = (   0.0000000   0.0555556   0.4444444), wk =   0.0082305
        k(   19) = (   0.0000000   0.0555556  -0.5000000), wk =   0.0082305
        k(   20) = (   0.0000000   0.0555556  -0.4444444), wk =   0.0082305
        k(   21) = (   0.0000000   0.0555556  -0.3888889), wk =   0.0082305
        k(   22) = (   0.0000000   0.0555556  -0.3333333), wk =   0.0082305
        k(   23) = (   0.0000000   0.0555556  -0.2777778), wk =   0.0082305
        k(   24) = (   0.0000000   0.0555556  -0.2222222), wk =   0.0082305
        k(   25) = (   0.0000000   0.0555556  -0.1666667), wk =   0.0082305
        k(   26) = (   0.0000000   0.0555556  -0.1111111), wk =   0.0082305
        k(   27) = (   0.0000000   0.0555556  -0.0555556), wk =   0.0041152
        k(   28) = (   0.0000000   0.1111111   0.1111111), wk =   0.0020576
        k(   29) = (   0.0000000   0.1111111   0.1666667), wk =   0.0082305
        k(   30) = (   0.0000000   0.1111111   0.2222222), wk =   0.0082305
        k(   31) = (   0.0000000   0.1111111   0.2777778), wk =   0.0082305
        k(   32) = (   0.0000000   0.1111111   0.3333333), wk =   0.0082305
        k(   33) = (   0.0000000   0.1111111   0.3888889), wk =   0.0082305
        k(   34) = (   0.0000000   0.1111111   0.4444444), wk =   0.0082305
        k(   35) = (   0.0000000   0.1111111  -0.5000000), wk =   0.0082305
        k(   36) = (   0.0000000   0.1111111  -0.4444444), wk =   0.0082305
        k(   37) = (   0.0000000   0.1111111  -0.3888889), wk =   0.0082305
        k(   38) = (   0.0000000   0.1111111  -0.3333333), wk =   0.0082305
        k(   39) = (   0.0000000   0.1111111  -0.2777778), wk =   0.0082305
        k(   40) = (   0.0000000   0.1111111  -0.2222222), wk =   0.0082305
        k(   41) = (   0.0000000   0.1111111  -0.1666667), wk =   0.0082305
        k(   42) = (   0.0000000   0.1111111  -0.1111111), wk =   0.0041152
        k(   43) = (   0.0000000   0.1666667   0.1666667), wk =   0.0020576
        k(   44) = (   0.0000000   0.1666667   0.2222222), wk =   0.0082305
        k(   45) = (   0.0000000   0.1666667   0.2777778), wk =   0.0082305
        k(   46) = (   0.0000000   0.1666667   0.3333333), wk =   0.0082305
        k(   47) = (   0.0000000   0.1666667   0.3888889), wk =   0.0082305
        k(   48) = (   0.0000000   0.1666667   0.4444444), wk =   0.0082305
        k(   49) = (   0.0000000   0.1666667  -0.5000000), wk =   0.0082305
        k(   50) = (   0.0000000   0.1666667  -0.4444444), wk =   0.0082305
        k(   51) = (   0.0000000   0.1666667  -0.3888889), wk =   0.0082305
        k(   52) = (   0.0000000   0.1666667  -0.3333333), wk =   0.0082305
        k(   53) = (   0.0000000   0.1666667  -0.2777778), wk =   0.0082305
        k(   54) = (   0.0000000   0.1666667  -0.2222222), wk =   0.0082305
        k(   55) = (   0.0000000   0.1666667  -0.1666667), wk =   0.0041152
        k(   56) = (   0.0000000   0.2222222   0.2222222), wk =   0.0020576
        k(   57) = (   0.0000000   0.2222222   0.2777778), wk =   0.0082305
        k(   58) = (   0.0000000   0.2222222   0.3333333), wk =   0.0082305
        k(   59) = (   0.0000000   0.2222222   0.3888889), wk =   0.0082305
        k(   60) = (   0.0000000   0.2222222   0.4444444), wk =   0.0082305
        k(   61) = (   0.0000000   0.2222222  -0.5000000), wk =   0.0082305
        k(   62) = (   0.0000000   0.2222222  -0.4444444), wk =   0.0082305
        k(   63) = (   0.0000000   0.2222222  -0.3888889), wk =   0.0082305
        k(   64) = (   0.0000000   0.2222222  -0.3333333), wk =   0.0082305
        k(   65) = (   0.0000000   0.2222222  -0.2777778), wk =   0.0082305
        k(   66) = (   0.0000000   0.2222222  -0.2222222), wk =   0.0041152
        k(   67) = (   0.0000000   0.2777778   0.2777778), wk =   0.0020576
        k(   68) = (   0.0000000   0.2777778   0.3333333), wk =   0.0082305
        k(   69) = (   0.0000000   0.2777778   0.3888889), wk =   0.0082305
        k(   70) = (   0.0000000   0.2777778   0.4444444), wk =   0.0082305
        k(   71) = (   0.0000000   0.2777778  -0.5000000), wk =   0.0082305
        k(   72) = (   0.0000000   0.2777778  -0.4444444), wk =   0.0082305
        k(   73) = (   0.0000000   0.2777778  -0.3888889), wk =   0.0082305
        k(   74) = (   0.0000000   0.2777778  -0.3333333), wk =   0.0082305
        k(   75) = (   0.0000000   0.2777778  -0.2777778), wk =   0.0041152
        k(   76) = (   0.0000000   0.3333333   0.3333333), wk =   0.0020576
        k(   77) = (   0.0000000   0.3333333   0.3888889), wk =   0.0082305
        k(   78) = (   0.0000000   0.3333333   0.4444444), wk =   0.0082305
        k(   79) = (   0.0000000   0.3333333  -0.5000000), wk =   0.0082305
        k(   80) = (   0.0000000   0.3333333  -0.4444444), wk =   0.0082305
        k(   81) = (   0.0000000   0.3333333  -0.3888889), wk =   0.0082305
        k(   82) = (   0.0000000   0.3333333  -0.3333333), wk =   0.0041152
        k(   83) = (   0.0000000   0.3888889   0.3888889), wk =   0.0020576
        k(   84) = (   0.0000000   0.3888889   0.4444444), wk =   0.0082305
        k(   85) = (   0.0000000   0.3888889  -0.5000000), wk =   0.0082305
        k(   86) = (   0.0000000   0.3888889  -0.4444444), wk =   0.0082305
        k(   87) = (   0.0000000   0.3888889  -0.3888889), wk =   0.0041152
        k(   88) = (   0.0000000   0.4444444   0.4444444), wk =   0.0020576
        k(   89) = (   0.0000000   0.4444444  -0.5000000), wk =   0.0082305
        k(   90) = (   0.0000000   0.4444444  -0.4444444), wk =   0.0041152
        k(   91) = (   0.0000000  -0.5000000  -0.5000000), wk =   0.0010288
        k(   92) = (   0.0555556   0.1111111   0.1666667), wk =   0.0082305
        k(   93) = (   0.0555556   0.1111111   0.2222222), wk =   0.0164609
        k(   94) = (   0.0555556   0.1111111   0.2777778), wk =   0.0164609
        k(   95) = (   0.0555556   0.1111111   0.3333333), wk =   0.0164609
        k(   96) = (   0.0555556   0.1111111   0.3888889), wk =   0.0164609
        k(   97) = (   0.0555556   0.1111111   0.4444444), wk =   0.0164609
        k(   98) = (   0.0555556   0.1111111  -0.5000000), wk =   0.0164609
        k(   99) = (   0.0555556   0.1111111  -0.4444444), wk =   0.0082305
        k(  100) = (   0.0555556   0.1666667   0.2222222), wk =   0.0082305
        k(  101) = (   0.0555556   0.1666667   0.2777778), wk =   0.0164609
        k(  102) = (   0.0555556   0.1666667   0.3333333), wk =   0.0164609
        k(  103) = (   0.0555556   0.1666667   0.3888889), wk =   0.0164609
        k(  104) = (   0.0555556   0.1666667   0.4444444), wk =   0.0164609
        k(  105) = (   0.0555556   0.1666667  -0.5000000), wk =   0.0164609
        k(  106) = (   0.0555556   0.1666667  -0.4444444), wk =   0.0164609
        k(  107) = (   0.0555556   0.1666667  -0.3888889), wk =   0.0164609
        k(  108) = (   0.0555556   0.1666667  -0.3333333), wk =   0.0164609
        k(  109) = (   0.0555556   0.1666667  -0.2777778), wk =   0.0164609
        k(  110) = (   0.0555556   0.1666667  -0.2222222), wk =   0.0164609
        k(  111) = (   0.0555556   0.1666667  -0.1666667), wk =   0.0164609
        k(  112) = (   0.0555556   0.1666667  -0.1111111), wk =   0.0082305
        k(  113) = (   0.0555556   0.2222222   0.2777778), wk =   0.0082305
        k(  114) = (   0.0555556   0.2222222   0.3333333), wk =   0.0164609
        k(  115) = (   0.0555556   0.2222222   0.3888889), wk =   0.0164609
        k(  116) = (   0.0555556   0.2222222   0.4444444), wk =   0.0164609
        k(  117) = (   0.0555556   0.2222222  -0.5000000), wk =   0.0164609
        k(  118) = (   0.0555556   0.2222222  -0.4444444), wk =   0.0164609
        k(  119) = (   0.0555556   0.2222222  -0.3888889), wk =   0.0164609
        k(  120) = (   0.0555556   0.2222222  -0.3333333), wk =   0.0164609
        k(  121) = (   0.0555556   0.2222222  -0.2777778), wk =   0.0164609
        k(  122) = (   0.0555556   0.2222222  -0.2222222), wk =   0.0164609
        k(  123) = (   0.0555556   0.2222222  -0.1666667), wk =   0.0082305
        k(  124) = (   0.0555556   0.2777778   0.3333333), wk =   0.0082305
        k(  125) = (   0.0555556   0.2777778   0.3888889), wk =   0.0164609
        k(  126) = (   0.0555556   0.2777778   0.4444444), wk =   0.0164609
        k(  127) = (   0.0555556   0.2777778  -0.5000000), wk =   0.0164609
        k(  128) = (   0.0555556   0.2777778  -0.4444444), wk =   0.0164609
        k(  129) = (   0.0555556   0.2777778  -0.3888889), wk =   0.0164609
        k(  130) = (   0.0555556   0.2777778  -0.3333333), wk =   0.0164609
        k(  131) = (   0.0555556   0.2777778  -0.2777778), wk =   0.0164609
        k(  132) = (   0.0555556   0.2777778  -0.2222222), wk =   0.0082305
        k(  133) = (   0.0555556   0.3333333   0.3888889), wk =   0.0082305
        k(  134) = (   0.0555556   0.3333333   0.4444444), wk =   0.0164609
        k(  135) = (   0.0555556   0.3333333  -0.5000000), wk =   0.0164609
        k(  136) = (   0.0555556   0.3333333  -0.4444444), wk =   0.0164609
        k(  137) = (   0.0555556   0.3333333  -0.3888889), wk =   0.0164609
        k(  138) = (   0.0555556   0.3333333  -0.3333333), wk =   0.0164609
        k(  139) = (   0.0555556   0.3333333  -0.2777778), wk =   0.0082305
        k(  140) = (   0.0555556   0.3888889   0.4444444), wk =   0.0082305
        k(  141) = (   0.0555556   0.3888889  -0.5000000), wk =   0.0164609
        k(  142) = (   0.0555556   0.3888889  -0.4444444), wk =   0.0164609
        k(  143) = (   0.0555556   0.3888889  -0.3888889), wk =   0.0164609
        k(  144) = (   0.0555556   0.3888889  -0.3333333), wk =   0.0082305
        k(  145) = (   0.0555556   0.4444444  -0.5000000), wk =   0.0082305
        k(  146) = (   0.0555556   0.4444444  -0.4444444), wk =   0.0164609
        k(  147) = (   0.0555556   0.4444444  -0.3888889), wk =   0.0082305
        k(  148) = (   0.0555556  -0.5000000  -0.4444444), wk =   0.0041152
        k(  149) = (   0.1111111   0.2222222   0.3333333), wk =   0.0082305
        k(  150) = (   0.1111111   0.2222222   0.3888889), wk =   0.0164609
        k(  151) = (   0.1111111   0.2222222   0.4444444), wk =   0.0164609
        k(  152) = (   0.1111111   0.2222222  -0.5000000), wk =   0.0164609
        k(  153) = (   0.1111111   0.2222222  -0.4444444), wk =   0.0164609
        k(  154) = (   0.1111111   0.2222222  -0.3888889), wk =   0.0082305
        k(  155) = (   0.1111111   0.2777778   0.3888889), wk =   0.0082305
        k(  156) = (   0.1111111   0.2777778   0.4444444), wk =   0.0164609
        k(  157) = (   0.1111111   0.2777778  -0.5000000), wk =   0.0164609
        k(  158) = (   0.1111111   0.2777778  -0.4444444), wk =   0.0164609
        k(  159) = (   0.1111111   0.2777778  -0.3888889), wk =   0.0164609
        k(  160) = (   0.1111111   0.2777778  -0.3333333), wk =   0.0164609
        k(  161) = (   0.1111111   0.2777778  -0.2777778), wk =   0.0164609
        k(  162) = (   0.1111111   0.2777778  -0.2222222), wk =   0.0164609
        k(  163) = (   0.1111111   0.2777778  -0.1666667), wk =   0.0082305
        k(  164) = (   0.1111111   0.3333333   0.4444444), wk =   0.0082305
        k(  165) = (   0.1111111   0.3333333  -0.5000000), wk =   0.0164609
        k(  166) = (   0.1111111   0.3333333  -0.4444444), wk =   0.0164609
        k(  167) = (   0.1111111   0.3333333  -0.3888889), wk =   0.0164609
        k(  168) = (   0.1111111   0.3333333  -0.3333333), wk =   0.0164609
        k(  169) = (   0.1111111   0.3333333  -0.2777778), wk =   0.0164609
        k(  170) = (   0.1111111   0.3333333  -0.2222222), wk =   0.0082305
        k(  171) = (   0.1111111   0.3888889  -0.5000000), wk =   0.0082305
        k(  172) = (   0.1111111   0.3888889  -0.4444444), wk =   0.0164609
        k(  173) = (   0.1111111   0.3888889  -0.3888889), wk =   0.0164609
        k(  174) = (   0.1111111   0.3888889  -0.3333333), wk =   0.0164609
        k(  175) = (   0.1111111   0.3888889  -0.2777778), wk =   0.0082305
        k(  176) = (   0.1111111   0.4444444  -0.4444444), wk =   0.0082305
        k(  177) = (   0.1111111   0.4444444  -0.3888889), wk =   0.0164609
        k(  178) = (   0.1111111   0.4444444  -0.3333333), wk =   0.0082305
        k(  179) = (   0.1111111  -0.5000000  -0.3888889), wk =   0.0041152
        k(  180) = (   0.1666667   0.3333333  -0.5000000), wk =   0.0082305
        k(  181) = (   0.1666667   0.3333333  -0.4444444), wk =   0.0164609
        k(  182) = (   0.1666667   0.3333333  -0.3888889), wk =   0.0164609
        k(  183) = (   0.1666667   0.3333333  -0.3333333), wk =   0.0082305
        k(  184) = (   0.1666667   0.3888889  -0.4444444), wk =   0.0082305
        k(  185) = (   0.1666667   0.3888889  -0.3888889), wk =   0.0164609
        k(  186) = (   0.1666667   0.3888889  -0.3333333), wk =   0.0164609
        k(  187) = (   0.1666667   0.3888889  -0.2777778), wk =   0.0164609
        k(  188) = (   0.1666667   0.3888889  -0.2222222), wk =   0.0082305
        k(  189) = (   0.1666667   0.4444444  -0.3888889), wk =   0.0082305
        k(  190) = (   0.1666667   0.4444444  -0.3333333), wk =   0.0164609
        k(  191) = (   0.1666667   0.4444444  -0.2777778), wk =   0.0082305
        k(  192) = (   0.1666667  -0.5000000  -0.3333333), wk =   0.0041152
        k(  193) = (   0.2222222   0.4444444  -0.3333333), wk =   0.0082305
        k(  194) = (   0.2222222   0.4444444  -0.2777778), wk =   0.0082305
        k(  195) = (   0.2222222  -0.5000000  -0.2777778), wk =   0.0041152

     Dense  grid:     6231 G-vectors     FFT dimensions: (  25,  25,  25)

     Smooth grid:     2229 G-vectors     FFT dimensions: (  20,  20,  20)

     Dynamical RAM for                 wfc:       0.02 MB

     Dynamical RAM for     wfc (w. buffer):       4.16 MB

     Dynamical RAM for           str. fact:       0.05 MB

     Dynamical RAM for           local pot:       0.00 MB

     Dynamical RAM for          nlocal pot:       0.04 MB

     Dynamical RAM for                qrad:       1.34 MB

     Dynamical RAM for          rho,v,vnew:       0.33 MB

     Dynamical RAM for               rhoin:       0.11 MB

     Dynamical RAM for            rho*nmix:       0.76 MB

     Dynamical RAM for           G-vectors:       0.19 MB

     Dynamical RAM for          h,s,v(r/c):       0.02 MB

     Dynamical RAM for          <psi|beta>:       0.00 MB

     Dynamical RAM for                 psi:       0.04 MB

     Dynamical RAM for                hpsi:       0.04 MB

     Dynamical RAM for                spsi:       0.04 MB

     Dynamical RAM for      wfcinit/wfcrot:       0.04 MB

     Dynamical RAM for           addusdens:       8.89 MB

     Estimated static dynamical RAM per process >       6.62 MB

     Estimated max dynamical RAM per process >      16.26 MB

     Estimated total dynamical RAM >      32.53 MB

     Initial potential from superposition of free atoms

     starting charge      10.9998, renormalised to      11.0000
     Starting wfcs are    9 randomized atomic wfcs +    1 random wfcs
     Checking if some PAW data can be deallocated... 

     total cpu time spent up to now is        0.3 secs

     Self-consistent Calculation

     iteration #  1     ecut=    35.00 Ry     beta= 0.70
     Davidson diagonalization with overlap

---- Real-time Memory Report at c_bands before calling an iterative solver
            49 MiB given to the printing process from OS
             0 MiB allocation reported by mallinfo(arena+hblkhd)
          4662 MiB available memory on the node where the printing process lives
------------------
     ethr =  1.00E-02,  avg # of iterations =  4.1

     Threshold (ethr) on eigenvalues was too large:
     Diagonalizing with lowered threshold

     Davidson diagonalization with overlap

---- Real-time Memory Report at c_bands before calling an iterative solver
            52 MiB given to the printing process from OS
             0 MiB allocation reported by mallinfo(arena+hblkhd)
          4645 MiB available memory on the node where the printing process lives
------------------
     ethr =  5.49E-04,  avg # of iterations =  1.2

     total cpu time spent up to now is        0.7 secs

     total energy              =    -213.05646652 Ry
     estimated scf accuracy    <       0.06023504 Ry

     iteration #  2     ecut=    35.00 Ry     beta= 0.70
     Davidson diagonalization with overlap

---- Real-time Memory Report at c_bands before calling an iterative solver
            59 MiB given to the printing process from OS
             0 MiB allocation reported by mallinfo(arena+hblkhd)
          4624 MiB available memory on the node where the printing process lives
------------------
     ethr =  5.48E-04,  avg # of iterations =  2.1

     total cpu time spent up to now is        0.9 secs

     total energy              =    -213.05923022 Ry
     estimated scf accuracy    <       0.21156477 Ry

     iteration #  3     ecut=    35.00 Ry     beta= 0.70
     Davidson diagonalization with overlap

---- Real-time Memory Report at c_bands before calling an iterative solver
            59 MiB given to the printing process from OS
             0 MiB allocation reported by mallinfo(arena+hblkhd)
          4616 MiB available memory on the node where the printing process lives
------------------
     ethr =  5.48E-04,  avg # of iterations =  2.0

     total cpu time spent up to now is        1.1 secs

     total energy              =    -213.09215959 Ry
     estimated scf accuracy    <       0.00017841 Ry

     iteration #  4     ecut=    35.00 Ry     beta= 0.70
     Davidson diagonalization with overlap

---- Real-time Memory Report at c_bands before calling an iterative solver
            59 MiB given to the printing process from OS
             0 MiB allocation reported by mallinfo(arena+hblkhd)
          4616 MiB available memory on the node where the printing process lives
------------------
     ethr =  1.62E-06,  avg # of iterations =  3.6

     total cpu time spent up to now is        1.4 secs

     total energy              =    -213.09222744 Ry
     estimated scf accuracy    <       0.00004712 Ry

     iteration #  5     ecut=    35.00 Ry     beta= 0.70
     Davidson diagonalization with overlap

---- Real-time Memory Report at c_bands before calling an iterative solver
            59 MiB given to the printing process from OS
             0 MiB allocation reported by mallinfo(arena+hblkhd)
          4618 MiB available memory on the node where the printing process lives
------------------
     ethr =  4.28E-07,  avg # of iterations =  1.3

     total cpu time spent up to now is        1.6 secs

     total energy              =    -213.09223778 Ry
     estimated scf accuracy    <       0.00000209 Ry

     iteration #  6     ecut=    35.00 Ry     beta= 0.70
     Davidson diagonalization with overlap

---- Real-time Memory Report at c_bands before calling an iterative solver
            59 MiB given to the printing process from OS
             0 MiB allocation reported by mallinfo(arena+hblkhd)
          4617 MiB available memory on the node where the printing process lives
------------------
     ethr =  1.90E-08,  avg # of iterations =  1.6

     total cpu time spent up to now is        1.8 secs

     End of self-consistent calculation

          k = 0.0000 0.0000 0.0000 (   283 PWs)   bands (ev):

     3.2651   9.6861   9.6861   9.6861  10.5183  10.5183  35.5742  37.9706
    37.9706  37.9706

     occupation numbers 
     1.0000   1.0000   1.0000   1.0000   1.0000   1.0000   0.0000   0.0000
     0.0000   0.0000

          k =-0.0556 0.0556-0.0556 (   283 PWs)   bands (ev):

     3.3775   9.6619   9.7078   9.7078  10.5097  10.5097  34.8357  36.6581
    37.5916  37.5916

     occupation numbers 
     1.0000   1.0000   1.0000   1.0000   1.0000   1.0000   0.0000   0.0000
     0.0000   0.0000

          k =-0.1111 0.1111-0.1111 (   280 PWs)   bands (ev):

     3.7112   9.5956   9.7641   9.7641  10.4926  10.4926  32.2615  36.1713
    36.9050  36.9050

     occupation numbers 
     1.0000   1.0000   1.0000   1.0000   1.0000   1.0000   0.0000   0.0000
     0.0000   0.0000

          k =-0.1667 0.1667-0.1667 (   277 PWs)   bands (ev):

     4.2535   9.5079   9.8264   9.8264  10.4929  10.4929  29.3435  35.9208
    36.2565  36.2565

     occupation numbers 
     1.0000   1.0000   1.0000   1.0000   1.0000   1.0000   0.0000   0.0000
     0.0000   0.0000

          k =-0.2222 0.2222-0.2222 (   283 PWs)   bands (ev):

     4.9766   9.4355   9.8519   9.8519  10.5484  10.5484  26.4936  35.5744
    35.7098  35.7098

     occupation numbers 
     1.0000   1.0000   1.0000   1.0000   1.0000   1.0000   0.0000   0.0000
     0.0000   0.0000

          k =-0.2778 0.2778-0.2778 (   286 PWs)   bands (ev):

     5.8194   9.4438   9.8241   9.8241  10.6686  10.6686  23.7934  35.1403
    35.2953  35.2953

     occupation numbers 
     1.0000   1.0000   1.0000   1.0000   1.0000   1.0000   0.0000   0.0000
     0.0000   0.0000

          k =-0.3333 0.3333-0.3333 (   287 PWs)   bands (ev):

     6.6469   9.6571   9.7669   9.7669  10.8198  10.8198  21.2772  34.6917
    35.0122  35.0122

     occupation numbers 
     1.0000   1.0000   1.0000   1.0000   1.0000   1.0000   0.0000   0.0000
     0.0000   0.0000

          k =-0.3889 0.3889-0.3889 (   281 PWs)   bands (ev):

     7.2432   9.7083   9.7083  10.2431  10.9602  10.9602  19.0306  34.3153
    34.8425  34.8425

     occupation numbers 
     1.0000   1.0000   1.0000   1.0000   1.0000   1.0000   0.0000   0.0000
     0.0000   0.0000

          k =-0.4444 0.4444-0.4444 (   269 PWs)   bands (ev):

     7.5227   9.6668   9.6668  11.0589  11.0589  11.1172  17.2307  34.0669
    34.7622  34.7622

     occupation numbers 
     1.0000   1.0000   1.0000   1.0000   1.0000   1.0000   0.0000   0.0000
     0.0000   0.0000

          k = 0.5000-0.5000 0.5000 (   272 PWs)   bands (ev):

     7.5950   9.6518   9.6518  11.0932  11.0932  11.6238  16.4338  33.9805
    34.7398  34.7398

     occupation numbers 
     1.0000   1.0000   1.0000   1.0000   1.0000   1.0000   0.0000   0.0000
     0.0000   0.0000

          k = 0.0000 0.1111 0.0000 (   283 PWs)   bands (ev):

     3.4150   9.6412   9.7220   9.7220  10.4778  10.5347  35.0339  36.5541
    36.5541  37.3683

     occupation numbers 
     1.0000   1.0000   1.0000   1.0000   1.0000   1.0000   0.0000   0.0000
     0.0000   0.0000

          k =-0.0556 0.1667-0.0556 (   284 PWs)   bands (ev):

     3.6747   9.5812   9.7713   9.7741  10.4341  10.5459  33.2598  35.5689
    35.5960  37.7803

     occupation numbers 
     1.0000   1.0000   1.0000   1.0000   1.0000   1.0000   0.0000   0.0000
     0.0000   0.0000

          k =-0.1111 0.2222-0.1111 (   283 PWs)   bands (ev):

     4.1475   9.4964   9.8349   9.8397  10.4020  10.5630  30.3909  34.7886
    35.1271  38.4869

     occupation numbers 
     1.0000   1.0000   1.0000   1.0000   1.0000   1.0000   0.0000   0.0000
     0.0000   0.0000

          k =-0.1667 0.2778-0.1667 (   285 PWs)   bands (ev):

     4.8116   9.4117   9.8665   9.8808  10.4336  10.6160  27.5074  34.1489
    34.7302  38.4629

     occupation numbers 
     1.0000   1.0000   1.0000   1.0000   1.0000   1.0000   0.0000   0.0000
     0.0000   0.0000

          k =-0.2222 0.3333-0.2222 (   283 PWs)   bands (ev):

     5.6201   9.3755   9.8325   9.8730  10.5646  10.7214  24.7530  33.6926
    34.3549  37.3352

     occupation numbers 
     1.0000   1.0000   1.0000   1.0000   1.0000   1.0000   0.0000   0.0000
     0.0000   0.0000

          k =-0.2778 0.3889-0.2778 (   283 PWs)   bands (ev):

     6.4677   9.4765   9.7617   9.8267  10.7703  10.8571  22.1678  33.4214
    34.0175  36.1370

     occupation numbers 
     1.0000   1.0000   1.0000   1.0000   1.0000   1.0000   0.0000   0.0000
     0.0000   0.0000

          k =-0.3333 0.4444-0.3333 (   280 PWs)   bands (ev):

     7.1551   9.6868   9.7680   9.8453  10.9846  11.0455  19.8143  33.3475
    33.7158  35.1214

     occupation numbers 
     1.0000   1.0000   1.0000   1.0000   1.0000   1.0000   0.0000   0.0000
     0.0000   0.0000

          k =-0.3889 0.5000-0.3889 (   274 PWs)   bands (ev):

     7.5246   9.6354   9.7181  10.3781  11.0718  11.5021  17.8127  33.3842
    33.4871  34.4324

     occupation numbers 
     1.0000   1.0000   1.0000   1.0000   1.0000   1.0000   0.0000   0.0000
     0.0000   0.0000

          k = 0.5556-0.4444 0.5556 (   271 PWs)   bands (ev):

     7.6493   9.6126   9.6902  10.6627  11.0955  12.0761  16.5608  32.9517
    33.8477  34.1970

     occupation numbers 
     1.0000   1.0000   1.0000   1.0000   1.0000   1.0000   0.0000   0.0000
     0.0000   0.0000

          k = 0.5000-0.3889 0.5000 (   271 PWs)   bands (ev):

     7.6271   9.6227   9.6908  10.6336  11.0502  11.9351  16.8474  32.5531
    34.3091  34.4262

     occupation numbers 
     1.0000   1.0000   1.0000   1.0000   1.0000   1.0000   0.0000   0.0000
     0.0000   0.0000

          k = 0.4444-0.3333 0.4444 (   276 PWs)   bands (ev):

     7.4365   9.6631   9.7207  10.2412  10.9395  11.3929  18.4272  32.3097
    34.6553  35.1946

     occupation numbers 
     1.0000   1.0000   1.0000   1.0000   1.0000   1.0000   0.0000   0.0000
     0.0000   0.0000

          k = 0.3889-0.2778 0.3889 (   282 PWs)   bands (ev):

     6.9591   9.7019   9.7259   9.7744  10.7843  11.0853  20.5692  32.2514
    35.1810  36.0619

     occupation numbers 
     1.0000   1.0000   1.0000   1.0000   1.0000   1.0000   0.0000   0.0000
     0.0000   0.0000

          k = 0.3333-0.2222 0.3333 (   285 PWs)   bands (ev):

     6.1920   9.4298   9.7932   9.8381  10.6134  10.8808  23.0080  32.3752
    35.8260  36.8324

     occupation numbers 
     1.0000   1.0000   1.0000   1.0000   1.0000   1.0000   0.0000   0.0000
     0.0000   0.0000

          k = 0.2778-0.1667 0.2778 (   287 PWs)   bands (ev):

     5.3396   9.3866   9.8440   9.8835  10.4698  10.7155  25.6533  32.6697
    36.4865  37.3999

     occupation numbers 
     1.0000   1.0000   1.0000   1.0000   1.0000   1.0000   0.0000   0.0000
     0.0000   0.0000

          k = 0.2222-0.1111 0.2222 (   283 PWs)   bands (ev):

     4.5711   9.4468   9.8524   9.8712  10.4047  10.6020  28.4578  33.1330
    36.9922  37.8925

     occupation numbers 
     1.0000   1.0000   1.0000   1.0000   1.0000   1.0000   0.0000   0.0000
     0.0000   0.0000

          k = 0.1667-0.0556 0.1667 (   280 PWs)   bands (ev):

     3.9671   9.5370   9.8053   9.8119  10.4209  10.5481  31.3517  33.7681
    37.1796  38.3451

     occupation numbers 
     1.0000   1.0000   1.0000   1.0000   1.0000   1.0000   0.0000   0.0000
     0.0000   0.0000

          k = 0.1111-0.0000 0.1111 (   285 PWs)   bands (ev):

     3.5637   9.6168   9.7389   9.7512  10.4675  10.5277  33.8549  34.9254
    37.1061  38.3904

     occupation numbers 
     1.0000   1.0000   1.0000   1.0000   1.0000   1.0000   0.0000   0.0000
     0.0000   0.0000

          k = 0.0000 0.2222 0.0000 (   283 PWs)   bands (ev):

     3.8587   9.5128   9.8282   9.8282  10.3647  10.5822  33.9924  34.4656
    34.4656  36.1007

     occupation numbers 
     1.0000   1.0000   1.0000   1.0000   1.0000   1.0000   0.0000   0.0000
     0.0000   0.0000

          k =-0.0556 0.2778-0.0556 (   289 PWs)   bands (ev):

     4.2565   9.4214   9.8989   9.9039  10.3058  10.6144  31.5619  33.5174
    34.2875  36.4610

     occupation numbers 
     1.0000   1.0000   1.0000   1.0000   1.0000   1.0000   0.0000   0.0000
     0.0000   0.0000

          k =-0.1111 0.3333-0.1111 (   289 PWs)   bands (ev):

     4.8507   9.3248   9.9160   9.9656  10.3385  10.6682  28.6781  32.7697
    33.9219  36.9654

     occupation numbers 
     1.0000   1.0000   1.0000   1.0000   1.0000   1.0000   0.0000   0.0000
     0.0000   0.0000

          k =-0.1667 0.3889-0.1667 (   289 PWs)   bands (ev):

     5.6040   9.2527   9.8409   9.9811  10.5171  10.7642  25.8793  32.2258
    33.5169  35.8695

     occupation numbers 
     1.0000   1.0000   1.0000   1.0000   1.0000   1.0000   0.0000   0.0000
     0.0000   0.0000

          k =-0.2222 0.4444-0.2222 (   283 PWs)   bands (ev):

     6.4347   9.2579   9.7354   9.9504  10.8067  10.8896  23.2342  31.8967
    33.0548  34.6761

     occupation numbers 
     1.0000   1.0000   1.0000   1.0000   1.0000   1.0000   0.0000   0.0000
     0.0000   0.0000

          k =-0.2778 0.5000-0.2778 (   275 PWs)   bands (ev):

     7.1747   9.4123   9.6556   9.8966  11.0091  11.2232  20.7838  31.7978
    32.3747  33.9224

     occupation numbers 
     1.0000   1.0000   1.0000   1.0000   1.0000   1.0000   0.0000   0.0000
     0.0000   0.0000

          k =-0.3333 0.5556-0.3333 (   271 PWs)   bands (ev):

     7.6266   9.5146   9.8348   9.8418  11.0873  11.8576  18.6127  31.5265
    31.9356  33.6446

     occupation numbers 
     1.0000   1.0000   1.0000   1.0000   1.0000   1.0000   0.0000   0.0000
     0.0000   0.0000

          k = 0.6111-0.3889 0.6111 (   277 PWs)   bands (ev):

     7.8035   9.4925   9.8022  10.1274  11.1022  12.6654  16.9630  30.7415
    32.3233  33.6559

     occupation numbers 
     1.0000   1.0000   1.0000   1.0000   1.0000   0.3435   0.0000   0.0000
     0.0000   0.0000

          k = 0.5556-0.3333 0.5556 (   274 PWs)   bands (ev):

     7.8262   9.5001   9.7877  10.2034  11.0472  12.8785  16.6560  30.1281
    32.9724  33.8906

     occupation numbers 
     1.0000   1.0000   1.0000   1.0000   1.0000   0.0019   0.0000   0.0000
     0.0000   0.0000

          k = 0.5000-0.2778 0.5000 (   278 PWs)   bands (ev):

     7.7161   9.5452   9.8025  10.0051  10.9257  12.2100  17.9905  29.7193
    33.8717  34.3377

     occupation numbers 
     1.0000   1.0000   1.0000   1.0000   1.0000   1.0004   0.0000   0.0000
     0.0000   0.0000

          k = 0.4444-0.2222 0.4444 (   279 PWs)   bands (ev):

     7.3728   9.6151   9.6272   9.8458  10.7569  11.6027  20.0342  29.5229
    34.9969  35.0127

     occupation numbers 
     1.0000   1.0000   1.0000   1.0000   1.0000   1.0000   0.0000   0.0000
     0.0000   0.0000

          k = 0.3889-0.1667 0.3889 (   283 PWs)   bands (ev):

     6.7110   9.3567   9.7107   9.9096  10.5655  11.2269  22.4044  29.5355
    35.8613  36.3708

     occupation numbers 
     1.0000   1.0000   1.0000   1.0000   1.0000   1.0000   0.0000   0.0000
     0.0000   0.0000

          k = 0.3333-0.1111 0.3333 (   287 PWs)   bands (ev):

     5.8821   9.2976   9.7960   9.9721  10.3909  10.9630  24.9900  29.7494
    36.8977  37.9347

     occupation numbers 
     1.0000   1.0000   1.0000   1.0000   1.0000   1.0000   0.0000   0.0000
     0.0000   0.0000

          k = 0.2778-0.0556 0.2778 (   284 PWs)   bands (ev):

     5.0874   9.3507   9.8512   9.9734  10.3065  10.7638  27.7322  30.1709
    37.9389  39.6073

     occupation numbers 
     1.0000   1.0000   1.0000   1.0000   1.0000   1.0000   0.0000   0.0000
     0.0000   0.0000

          k = 0.2222-0.0000 0.2222 (   285 PWs)   bands (ev):

     4.4332   9.4443   9.8548   9.8893  10.3438  10.6279  30.3203  31.0605
    37.9432  39.6131

     occupation numbers 
     1.0000   1.0000   1.0000   1.0000   1.0000   1.0000   0.0000   0.0000
     0.0000   0.0000

          k = 0.0000 0.3333 0.0000 (   291 PWs)   bands (ev):

     4.5757   9.3183   9.9991   9.9991  10.2067  10.6555  32.4459  32.4459
    32.9558  34.6093

     occupation numbers 
     1.0000   1.0000   1.0000   1.0000   1.0000   1.0000   0.0000   0.0000
     0.0000   0.0000

          k =-0.0556 0.3889-0.0556 (   291 PWs)   bands (ev):

     5.0901   9.2081  10.0041  10.0904  10.2452  10.7068  29.9414  31.5818
    33.1127  34.4512

     occupation numbers 
     1.0000   1.0000   1.0000   1.0000   1.0000   1.0000   0.0000   0.0000
     0.0000   0.0000

          k =-0.1111 0.4444-0.1111 (   290 PWs)   bands (ev):

     5.7678   9.1115   9.8746  10.1375  10.4850  10.7940  27.1511  30.9366
    32.5683  33.9861

     occupation numbers 
     1.0000   1.0000   1.0000   1.0000   1.0000   1.0000   0.0000   0.0000
     0.0000   0.0000

          k =-0.1667 0.5000-0.1667 (   286 PWs)   bands (ev):

     6.5428   9.0584   9.7358  10.1284  10.8432  10.9129  24.4658  30.5230
    31.5934  33.3955

     occupation numbers 
     1.0000   1.0000   1.0000   1.0000   1.0000   1.0000   0.0000   0.0000
     0.0000   0.0000

          k =-0.2222 0.5556-0.2222 (   280 PWs)   bands (ev):

     7.2813   9.0912   9.6264  10.0837  11.0284  11.3624  21.9413  30.3560
    30.4452  33.1069

     occupation numbers 
     1.0000   1.0000   1.0000   1.0000   1.0000   1.0000   0.0000   0.0000
     0.0000   0.0000

          k =-0.2778 0.6111-0.2778 (   276 PWs)   bands (ev):

     7.7917   9.2085   9.6129  10.0280  11.1029  12.1295  19.6370  29.3675
    30.4469  33.0132

     occupation numbers 
     1.0000   1.0000   1.0000   1.0000   1.0000   1.0000   0.0000   0.0000
     0.0000   0.0000

          k = 0.6667-0.3333 0.6667 (   277 PWs)   bands (ev):

     8.0221   9.2704   9.7525   9.9791  11.1129  13.1491  17.6859  28.4467
    30.8029  33.0861

     occupation numbers 
     1.0000   1.0000   1.0000   1.0000   1.0000   0.0000   0.0000   0.0000
     0.0000   0.0000

          k = 0.6111-0.2778 0.6111 (   273 PWs)   bands (ev):

     8.0883   9.2976   9.8527   9.9492  11.0518  13.8607  16.6951  27.7230
    31.4279  33.3315

     occupation numbers 
     1.0000   1.0000   1.0000   1.0000   1.0000   0.0000   0.0000   0.0000
     0.0000   0.0000

          k = 0.5556-0.2222 0.5556 (   274 PWs)   bands (ev):

     8.0473   9.3545   9.7650   9.9453  10.9234  13.2323  17.7079  27.2062
    32.3070  33.7651

     occupation numbers 
     1.0000   1.0000   1.0000   1.0000   1.0000   0.0000   0.0000   0.0000
     0.0000   0.0000

          k = 0.5000-0.1667 0.5000 (   280 PWs)   bands (ev):

     7.8364   9.4411   9.5112   9.9704  10.7447  12.3406  19.6679  26.9082
    33.4244  34.4006

     occupation numbers 
     1.0000   1.0000   1.0000   1.0000   1.0000   1.0193   0.0000   0.0000
     0.0000   0.0000

          k = 0.4444-0.1111 0.4444 (   279 PWs)   bands (ev):

     7.3231   9.2689   9.5718  10.0235  10.5392  11.7186  21.9746  26.8343
    34.7614  35.2492

     occupation numbers 
     1.0000   1.0000   1.0000   1.0000   1.0000   1.0000   0.0000   0.0000
     0.0000   0.0000

          k = 0.3889-0.0556 0.3889 (   278 PWs)   bands (ev):

     6.5642   9.2079   9.6937  10.0976  10.3325  11.3029  24.4917  26.9877
    36.2839  36.3041

     occupation numbers 
     1.0000   1.0000   1.0000   1.0000   1.0000   1.0000   0.0000   0.0000
     0.0000   0.0000

          k = 0.3333 0.0000 0.3333 (   279 PWs)   bands (ev):

     5.7730   9.2571   9.7950  10.1143  10.2183  10.9958  26.9143  27.6105
    37.5041  37.9693

     occupation numbers 
     1.0000   1.0000   1.0000   1.0000   1.0000   1.0000   0.0000   0.0000
     0.0000   0.0000

          k = 0.0000 0.4444 0.0000 (   290 PWs)   bands (ev):

     5.5149   9.0838  10.0692  10.2250  10.2250  10.7455  30.6048  30.6048
    32.0916  32.5120

     occupation numbers 
     1.0000   1.0000   1.0000   1.0000   1.0000   1.0000   0.0000   0.0000
     0.0000   0.0000

          k =-0.0556 0.5000-0.0556 (   292 PWs)   bands (ev):

     6.0939   8.9695   9.9656  10.3207  10.4546  10.8133  28.4515  29.8509
    31.1736  32.4911

     occupation numbers 
     1.0000   1.0000   1.0000   1.0000   1.0000   1.0000   0.0000   0.0000
     0.0000   0.0000

          k =-0.1111 0.5556-0.1111 (   288 PWs)   bands (ev):

     6.7665   8.8854   9.8339  10.3440  10.8462  10.9235  25.8234  29.3378
    29.7814  32.5850

     occupation numbers 
     1.0000   1.0000   1.0000   1.0000   1.0000   1.0000   0.0000   0.0000
     0.0000   0.0000

          k =-0.1667 0.6111-0.1667 (   282 PWs)   bands (ev):

     7.4258   8.8545   9.7154  10.3140  11.0397  11.4424  23.2690  28.4570
    29.0853  32.5066

     occupation numbers 
     1.0000   1.0000   1.0000   1.0000   1.0000   1.0000   0.0000   0.0000
     0.0000   0.0000

          k =-0.2222 0.6667-0.2222 (   281 PWs)   bands (ev):

     7.9302   8.8926   9.6435  10.2608  11.1160  12.3181  20.8816  27.2722
    29.1038  32.4790

     occupation numbers 
     1.0000   1.0000   1.0000   1.0000   1.0000   1.0116   0.0000   0.0000
     0.0000   0.0000

          k = 0.7222-0.2778 0.7222 (   277 PWs)   bands (ev):

     8.2112   8.9679   9.6424  10.2053  11.1267  13.4912  18.7386  26.2692
    29.4029  32.5630

     occupation numbers 
     1.0000   1.0000   1.0000   1.0000   1.0000   0.0000   0.0000   0.0000
     0.0000   0.0000

          k = 0.6667-0.2222 0.6667 (   275 PWs)   bands (ev):

     8.3379   9.0326   9.6612  10.1604  11.0638  14.7073  17.1179  25.4555
    29.9806  32.7809

     occupation numbers 
     1.0000   1.0000   1.0000   1.0000   1.0000   0.0000   0.0000   0.0000
     0.0000   0.0000

          k = 0.6111-0.1667 0.6111 (   275 PWs)   bands (ev):

     8.3691   9.1117   9.5951  10.1343  10.9340  14.4353  17.5570  24.8563
    30.8207  33.1584

     occupation numbers 
     1.0000   1.0000   1.0000   1.0000   1.0000   0.0000   0.0000   0.0000
     0.0000   0.0000

          k = 0.5556-0.1111 0.5556 (   275 PWs)   bands (ev):

     8.2767   9.2295   9.4084  10.1309  10.7564  13.2986  19.4477  24.4831
    31.8989  33.7116

     occupation numbers 
     1.0000   1.0000   1.0000   1.0000   1.0000   0.0000   0.0000   0.0000
     0.0000   0.0000

          k = 0.5000-0.0556 0.5000 (   277 PWs)   bands (ev):

     7.9339   9.2089   9.3910  10.1486  10.5579  12.3894  21.6725  24.3530
    33.1890  34.4442

     occupation numbers 
     1.0000   1.0000   1.0000   1.0000   1.0000   1.0464   0.0000   0.0000
     0.0000   0.0000

          k = 0.4444 0.0000 0.4444 (   277 PWs)   bands (ev):

     7.3021   9.1585   9.5503  10.1680  10.3804  11.7554  23.8113  24.7474
    34.6634  35.3426

     occupation numbers 
     1.0000   1.0000   1.0000   1.0000   1.0000   1.0000   0.0000   0.0000
     0.0000   0.0000

          k = 0.0000 0.5556 0.0000 (   290 PWs)   bands (ev):

     6.5454   8.8390  10.0964  10.4879  10.4879  10.8420  28.9864  28.9864
    29.5055  31.4113

     occupation numbers 
     1.0000   1.0000   1.0000   1.0000   1.0000   1.0000   0.0000   0.0000
     0.0000   0.0000

          k =-0.0556 0.6111-0.0556 (   284 PWs)   bands (ev):

     7.0594   8.7352  10.1100  10.5716  10.8062  10.9237  27.1354  28.0142
    28.3694  31.7334

     occupation numbers 
[...]
     0.0000   0.0000

          k = 0.7778-0.1111 0.8889 (   278 PWs)   bands (ev):

     8.1323   8.5095  10.2486  10.7945  11.1598  14.7754  21.2857  21.5734
    25.9722  32.6749

     occupation numbers 
     1.0000   1.0000   1.0000   1.0000   1.0000   0.0000   0.0000   0.0000
     0.0000   0.0000

          k = 0.7222-0.0556 0.8333 (   274 PWs)   bands (ev):

     8.3166   8.5987  10.0009  10.6866  11.1136  16.2638  19.4383  20.7809
    26.4717  32.9710

     occupation numbers 
     1.0000   1.0000   1.0000   1.0000   1.0000   0.0000   0.0000   0.0000
     0.0000   0.0000

          k = 0.6667 0.0000 0.7778 (   276 PWs)   bands (ev):

     8.5166   8.7010   9.7306  10.5658  11.0262  17.5950  17.6070  20.7144
    27.2142  33.3590

     occupation numbers 
     1.0000   1.0000   1.0000   1.0000   1.0000   0.0000   0.0000   0.0000
     0.0000   0.0000

          k = 0.8889-0.1111 1.0000 (   281 PWs)   bands (ev):

     7.8712   8.3563  10.8612  11.0357  11.1752  13.6740  21.0130  25.0311
    25.3449  31.4893

     occupation numbers 
     1.0000   1.0000   1.0000   1.0000   1.0000   0.0000   0.0000   0.0000
     0.0000   0.0000

          k = 0.8333-0.0556 0.9444 (   279 PWs)   bands (ev):

     7.9751   8.3887  10.6604  10.9454  11.2093  14.7658  20.2675  23.2598
    25.3632  32.1937

     occupation numbers 
     1.0000   1.0000   1.0000   1.0000   1.0000   0.0000   0.0000   0.0000
     0.0000   0.0000

          k = 0.7778 0.0000 0.8889 (   276 PWs)   bands (ev):

     8.1266   8.4755  10.3519  10.8349  11.1768  15.7467  20.0560  21.3297
    25.7869  32.5930

     occupation numbers 
     1.0000   1.0000   1.0000   1.0000   1.0000   0.0000   0.0000   0.0000
     0.0000   0.0000

          k =-0.1111-1.0000 0.0000 (   276 PWs)   bands (ev):

     7.8741   8.3174  10.9766  11.0226  11.2383  14.5240  19.8399  24.8329
    25.1429  31.4115

     occupation numbers 
     1.0000   1.0000   1.0000   1.0000   1.0000   0.0000   0.0000   0.0000
     0.0000   0.0000

          k =-0.2222 0.4444 0.0000 (   285 PWs)   bands (ev):

     6.0184   9.1247   9.7761  10.2361  10.3430  10.9804  27.1341  27.7607
    33.5713  36.4242

     occupation numbers 
     1.0000   1.0000   1.0000   1.0000   1.0000   1.0000   0.0000   0.0000
     0.0000   0.0000

          k =-0.2778 0.5000-0.0556 (   281 PWs)   bands (ev):

     6.7757   9.0675   9.6414  10.2451  10.5027  11.2960  24.7017  27.1578
    32.1328  36.6997

     occupation numbers 
     1.0000   1.0000   1.0000   1.0000   1.0000   1.0000   0.0000   0.0000
     0.0000   0.0000

          k =-0.3333 0.5556-0.1111 (   280 PWs)   bands (ev):

     7.4929   9.0933   9.5121  10.1845  10.7254  11.7722  22.1876  27.0058
    30.8220  36.4696

     occupation numbers 
     1.0000   1.0000   1.0000   1.0000   1.0000   1.0000   0.0000   0.0000
     0.0000   0.0000

          k = 0.6111-0.3889 0.8333 (   276 PWs)   bands (ev):

     7.9781   9.1999   9.4648  10.1229  10.9048  12.5215  19.8742  27.0859
    29.6845  36.2054

     occupation numbers 
     1.0000   1.0000   1.0000   1.0000   1.0000   1.0178   0.0000   0.0000
     0.0000   0.0000

          k = 0.5556-0.3333 0.7778 (   276 PWs)   bands (ev):

     8.1850   9.2031   9.6141  10.0713  11.0099  13.5645  17.8781  27.3820
    28.7421  36.0162

     occupation numbers 
     1.0000   1.0000   1.0000   1.0000   1.0000   0.0000   0.0000   0.0000
     0.0000   0.0000

          k = 0.5000-0.2778 0.7222 (   278 PWs)   bands (ev):

     8.2353   9.1836   9.7093  10.0462  11.0430  14.3243  16.8031  27.7438
    28.1617  35.9486

     occupation numbers 
     1.0000   1.0000   1.0000   1.0000   1.0000   0.0000   0.0000   0.0000
     0.0000   0.0000

          k =-0.2222 0.5556 0.0000 (   285 PWs)   bands (ev):

     6.9858   8.9231   9.6749  10.4896  10.5337  11.2941  25.8149  26.4410
    30.1286  35.4317

     occupation numbers 
     1.0000   1.0000   1.0000   1.0000   1.0000   1.0000   0.0000   0.0000
     0.0000   0.0000

          k =-0.2778 0.6111-0.0556 (   278 PWs)   bands (ev):

     7.6261   8.8939   9.5424  10.4500  10.7437  11.8354  23.5112  25.9816
    28.7568  35.8472

     occupation numbers 
     1.0000   1.0000   1.0000   1.0000   1.0000   1.0000   0.0000   0.0000
     0.0000   0.0000

          k = 0.6667-0.3333 0.8889 (   277 PWs)   bands (ev):

     8.1117   8.9321   9.4466  10.3734  10.9262  12.6741  21.1326  25.9794
    27.5546  35.8757

     occupation numbers 
     1.0000   1.0000   1.0000   1.0000   1.0000   0.3041   0.0000   0.0000
     0.0000   0.0000

          k = 0.6111-0.2778 0.8333 (   279 PWs)   bands (ev):

     8.3746   8.9730   9.4575  10.2967  11.0250  13.8391  18.9708  26.1698
    26.5884  35.9407

     occupation numbers 
     1.0000   1.0000   1.0000   1.0000   1.0000   0.0000   0.0000   0.0000
     0.0000   0.0000

          k = 0.5556-0.2222 0.7778 (   275 PWs)   bands (ev):

     8.4895   8.9672   9.5204  10.2388  11.0441  15.0956  17.2798  25.6663
    26.7560  36.1432

     occupation numbers 
     1.0000   1.0000   1.0000   1.0000   1.0000   0.0000   0.0000   0.0000
     0.0000   0.0000

          k = 0.5000-0.1667 0.7222 (   277 PWs)   bands (ev):

     8.5009   8.9995   9.4745  10.2309  10.9921  14.7532  17.7404  25.0623
    27.4474  36.5089

     occupation numbers 
     1.0000   1.0000   1.0000   1.0000   1.0000   0.0000   0.0000   0.0000
     0.0000   0.0000

          k = 0.4444-0.1111 0.6667 (   276 PWs)   bands (ev):

     8.3860   9.0789   9.3228  10.2737  10.8742  13.5048  19.6657  24.6779
    28.3545  37.0514

     occupation numbers 
     1.0000   1.0000   1.0000   1.0000   1.0000   0.0000   0.0000   0.0000
     0.0000   0.0000

          k = 0.3889-0.0556 0.6111 (   276 PWs)   bands (ev):

     8.0517   9.0467   9.3372  10.3373  10.6969  12.4950  21.8974  24.5392
    29.4497  37.7465

     occupation numbers 
     1.0000   1.0000   1.0000   1.0000   1.0000   1.0650   0.0000   0.0000
     0.0000   0.0000

          k = 0.3333 0.0000 0.5556 (   278 PWs)   bands (ev):

     7.4653   9.0185   9.4878  10.3849  10.5049  11.7863  24.0443  24.9137
    30.7178  38.2674

     occupation numbers 
     1.0000   1.0000   1.0000   1.0000   1.0000   1.0000   0.0000   0.0000
     0.0000   0.0000

          k =-0.2222 0.6667 0.0000 (   277 PWs)   bands (ev):

     7.7369   8.7335   9.7469  10.7376  10.7580  11.9037  24.7099  25.3570
    26.8670  34.6640

     occupation numbers 
     1.0000   1.0000   1.0000   1.0000   1.0000   1.0000   0.0000   0.0000
     0.0000   0.0000

          k = 0.7222-0.2778 0.9444 (   279 PWs)   bands (ev):

     8.1148   8.7351   9.6510  10.6447  10.9479  12.8258  22.5594  25.0273
    25.6189  35.2161

     occupation numbers 
     1.0000   1.0000   1.0000   1.0000   1.0000   0.0108   0.0000   0.0000
     0.0000   0.0000

          k = 0.6667-0.2222 0.8889 (   277 PWs)   bands (ev):

     8.3730   8.7793   9.5694  10.5392  11.0562  14.0676  20.3314  24.4816
    25.2629  35.4371

     occupation numbers 
     1.0000   1.0000   1.0000   1.0000   1.0000   0.0000   0.0000   0.0000
     0.0000   0.0000

          k = 0.6111-0.1667 0.8333 (   275 PWs)   bands (ev):

     8.5597   8.8094   9.5077  10.4431  11.0776  15.5499  18.3357  23.6199
    25.6730  35.7118

     occupation numbers 
     1.0000   1.0000   1.0000   1.0000   1.0000   0.0000   0.0000   0.0000
     0.0000   0.0000

          k = 0.5556-0.1111 0.7778 (   274 PWs)   bands (ev):

     8.7223   8.8037   9.4144  10.3857  11.0242  16.1226  17.7185  22.9628
    26.3252  36.1319

     occupation numbers 
     1.0000   1.0000   1.0000   1.0000   1.0000   0.0000   0.0000   0.0000
     0.0000   0.0000

          k = 0.5000-0.0556 0.7222 (   275 PWs)   bands (ev):

     8.6987   8.9405   9.2452  10.3826  10.9116  14.7214  19.5141  22.5675
    27.1843  36.7200

     occupation numbers 
     1.0000   1.0000   1.0000   1.0000   1.0000   0.0000   0.0000   0.0000
     0.0000   0.0000

          k = 0.4444 0.0000 0.6667 (   273 PWs)   bands (ev):

     8.4858   9.0805   9.1436  10.3974  10.7728  13.4681  21.3035  22.7473
    28.2349  37.4285

     occupation numbers 
     1.0000   1.0000   1.0000   1.0000   1.0000   0.0000   0.0000   0.0000
     0.0000   0.0000

          k = 0.7778-0.2222 1.0000 (   279 PWs)   bands (ev):

     8.0347   8.5797  10.0380  10.8556  11.0015  13.0337  23.7943  23.8569
    24.6091  34.1165

     occupation numbers 
     1.0000   1.0000   1.0000   1.0000   1.0000   0.0000   0.0000   0.0000
     0.0000   0.0000

          k = 0.7222-0.1667 0.9444 (   279 PWs)   bands (ev):

     8.2225   8.6169   9.9144  10.7502  11.1073  14.2900  21.8789  22.7336
    24.4337  34.8003

     occupation numbers 
     1.0000   1.0000   1.0000   1.0000   1.0000   0.0000   0.0000   0.0000
     0.0000   0.0000

          k = 0.6667-0.1111 0.8889 (   279 PWs)   bands (ev):

     8.3933   8.6936   9.7569  10.6251  11.1390  15.7780  19.8080  21.8665
    24.7754  35.1686

     occupation numbers 
     1.0000   1.0000   1.0000   1.0000   1.0000   0.0000   0.0000   0.0000
     0.0000   0.0000

          k = 0.6111-0.0556 0.8333 (   274 PWs)   bands (ev):

     8.5666   8.7763   9.5658  10.5205  11.0965  17.3283  17.9879  21.2898
    25.3741  35.5846

     occupation numbers 
     1.0000   1.0000   1.0000   1.0000   1.0000   0.0000   0.0000   0.0000
     0.0000   0.0000

          k = 0.5556 0.0000 0.7778 (   276 PWs)   bands (ev):

     8.7388   8.8308   9.3560  10.4481  11.0051  16.1725  18.9168  21.2956
    26.1845  36.1134

     occupation numbers 
     1.0000   1.0000   1.0000   1.0000   1.0000   0.0000   0.0000   0.0000
     0.0000   0.0000

          k = 0.7778-0.1111 1.0000 (   276 PWs)   bands (ev):

     8.0731   8.4799  10.3209  10.8829  11.1751  14.5327  21.2742  23.3149
    24.0793  33.7944

     occupation numbers 
     1.0000   1.0000   1.0000   1.0000   1.0000   0.0000   0.0000   0.0000
     0.0000   0.0000

          k = 0.7222-0.0556 0.9444 (   275 PWs)   bands (ev):

     8.2106   8.5556  10.1096  10.7667  11.2072  15.8031  20.5478  21.5507
    24.0990  34.5987

     occupation numbers 
     1.0000   1.0000   1.0000   1.0000   1.0000   0.0000   0.0000   0.0000
     0.0000   0.0000

          k = 0.6667-0.0000 0.8889 (   278 PWs)   bands (ev):

     8.3764   8.6695   9.8409  10.6427  11.1722  16.9273  19.5595  20.4876
    24.6163  35.0796

     occupation numbers 
     1.0000   1.0000   1.0000   1.0000   1.0000   0.0000   0.0000   0.0000
     0.0000   0.0000

          k =-0.2222-1.0000-0.0000 (   276 PWs)   bands (ev):

     8.0667   8.4454  10.4375  10.8734  11.2384  15.4637  20.0125  23.1278
    23.9048  33.6878

     occupation numbers 
     1.0000   1.0000   1.0000   1.0000   1.0000   0.0000   0.0000   0.0000
     0.0000   0.0000

          k = 0.6667-0.3333 1.0000 (   274 PWs)   bands (ev):

     8.1217   8.8815   9.3998  10.5622  10.7598  12.6167  22.9354  23.9430
    27.4310  37.4730

     occupation numbers 
     1.0000   1.0000   1.0000   1.0000   1.0000   0.5988   0.0000   0.0000
     0.0000   0.0000

          k = 0.6111-0.2778 0.9444 (   279 PWs)   bands (ev):

     8.4574   8.9259   9.2909  10.4922  10.9133  13.6908  20.9514  23.6952
    26.2770  37.8647

     occupation numbers 
     1.0000   1.0000   1.0000   1.0000   1.0000   0.0000   0.0000   0.0000
     0.0000   0.0000

          k = 0.5556-0.2222 0.8889 (   277 PWs)   bands (ev):

     8.6419   8.8972   9.3168  10.4092  11.0236  15.0489  18.8793  23.9834
    25.3171  37.8027

     occupation numbers 
     1.0000   1.0000   1.0000   1.0000   1.0000   0.0000   0.0000   0.0000
     0.0000   0.0000

          k = 0.5000-0.1667 0.8333 (   274 PWs)   bands (ev):

     8.7616   8.7955   9.3661  10.3722  11.0609  16.2270  17.4600  24.4287
    24.6560  37.7690

     occupation numbers 
     1.0000   1.0000   1.0000   1.0000   1.0000   0.0000   0.0000   0.0000
     0.0000   0.0000

          k = 0.6667-0.2222 1.0000 (   276 PWs)   bands (ev):

     8.3535   8.7659   9.5465  10.6637  10.9995  13.9370  22.0831  23.2262
    24.4044  36.8894

     occupation numbers 
     1.0000   1.0000   1.0000   1.0000   1.0000   0.0000   0.0000   0.0000
     0.0000   0.0000

          k = 0.6111-0.1667 0.9444 (   274 PWs)   bands (ev):

     8.5102   8.8427   9.4436  10.5637  11.0959  15.3186  20.2775  23.0861
    23.4307  37.6230

     occupation numbers 
     1.0000   1.0000   1.0000   1.0000   1.0000   0.0000   0.0000   0.0000
     0.0000   0.0000

          k = 0.5556-0.1111 0.8889 (   273 PWs)   bands (ev):

     8.6218   8.9091   9.3493  10.4763  11.1303  16.8894  18.3832  22.5843
    23.5907  38.0084

     occupation numbers 
     1.0000   1.0000   1.0000   1.0000   1.0000   0.0000   0.0000   0.0000
     0.0000   0.0000

          k = 0.5000-0.0556 0.8333 (   273 PWs)   bands (ev):

     8.6803   8.9824   9.2235  10.4546  11.0925  16.4771  18.8207  22.0667
    24.2822  38.4425

     occupation numbers 
     1.0000   1.0000   1.0000   1.0000   1.0000   0.0000   0.0000   0.0000
     0.0000   0.0000

          k = 0.4444 0.0000 0.7778 (   276 PWs)   bands (ev):

     8.6451   9.0270   9.1381  10.4884  10.9990  14.9669  20.4240  22.1294
    25.1854  38.9244

     occupation numbers 
     1.0000   1.0000   1.0000   1.0000   1.0000   0.0000   0.0000   0.0000
     0.0000   0.0000

          k = 0.6667-0.1111 1.0000 (   277 PWs)   bands (ev):

     8.3438   8.6894   9.7748  10.6787  11.1740  15.5930  21.5420  21.7312
    22.8276  36.5425

     occupation numbers 
     1.0000   1.0000   1.0000   1.0000   1.0000   0.0000   0.0000   0.0000
     0.0000   0.0000

          k = 0.6111-0.0556 0.9444 (   274 PWs)   bands (ev):

     8.4610   8.8069   9.5909  10.5684  11.2061  17.0348  19.9010  21.0736
    22.8535  37.4545

     occupation numbers 
     1.0000   1.0000   1.0000   1.0000   1.0000   0.0000   0.0000   0.0000
     0.0000   0.0000

          k = 0.5556 0.0000 0.8889 (   272 PWs)   bands (ev):

     8.5786   8.9354   9.3746  10.4911  11.1721  18.1076  18.3131  20.9841
    23.4457  38.0163

     occupation numbers 
     1.0000   1.0000   1.0000   1.0000   1.0000   0.0000   0.0000   0.0000
     0.0000   0.0000

          k =-0.3333-1.0000 0.0000 (   274 PWs)   bands (ev):

     8.3217   8.6627   9.8759  10.6676  11.2388  16.6885  20.3302  21.3564
    22.6728  36.4339

     occupation numbers 
     1.0000   1.0000   1.0000   1.0000   1.0000   0.0000   0.0000   0.0000
     0.0000   0.0000

          k = 0.5556-0.1111 1.0000 (   274 PWs)   bands (ev):

     8.5645   8.9876   9.3038  10.5058  11.1729  16.7851  19.8607  21.7325
    22.4998  39.6008

     occupation numbers 
     1.0000   1.0000   1.0000   1.0000   1.0000   0.0000   0.0000   0.0000
     0.0000   0.0000

          k = 0.5000-0.0556 0.9444 (   274 PWs)   bands (ev):

     8.5786   9.1142   9.1878  10.4732  11.2056  18.2808  18.5446  21.6627
    21.9788  40.1229

     occupation numbers 
     1.0000   1.0000   1.0000   1.0000   1.0000   0.0000   0.0000   0.0000
     0.0000   0.0000

          k =-0.4444-1.0000 0.0000 (   276 PWs)   bands (ev):

     8.5208   8.9732   9.3794  10.5000  11.2379  18.1021  19.6653  20.8076
    21.6939  39.4811

     occupation numbers 
     1.0000   1.0000   1.0000   1.0000   1.0000   0.0000   0.0000   0.0000
     0.0000   0.0000

     the Fermi energy is    12.6537 ev

!    total energy              =    -213.09223824 Ry
     total all-electron energy =     -3309.972004 Ry
     estimated scf accuracy    <          7.9E-10 Ry
     smearing contrib. (-TS)   =       0.00003325 Ry
     internal energy E=F+TS    =    -213.09227148 Ry

     The total energy is F=E-TS. E is the sum of the following terms:
     one-electron contribution =     -28.04284428 Ry
     hartree contribution      =      30.64236834 Ry
     xc contribution           =     -44.63425568 Ry
     ewald contribution        =     -81.20902241 Ry
     one-center paw contrib.   =     -89.84851745 Ry
      -> PAW hartree energy AE =      97.75816283 Ry
      -> PAW hartree energy PS =     -97.05575515 Ry
      -> PAW xc energy AE      =    -134.89349082 Ry
      -> PAW xc energy PS      =      44.34256570 Ry
      -> total E_H with PAW    =      31.34477602 Ry
      -> total E_XC with PAW   =    -135.18518081 Ry

     convergence has been achieved in   6 iterations

     Writing all to output data dir ./tmp/cu_fcc.save/ :
     XML data file, charge density, pseudopotentials, collected wavefunctions

     init_run     :      0.23s CPU      0.25s WALL (       1 calls)
     electrons    :      1.31s CPU      1.50s WALL (       1 calls)

     Called by init_run:
     wfcinit      :      0.06s CPU      0.06s WALL (       1 calls)
     wfcinit:atom :      0.00s CPU      0.00s WALL (     195 calls)
     wfcinit:wfcr :      0.05s CPU      0.06s WALL (     195 calls)
     potinit      :      0.10s CPU      0.11s WALL (       1 calls)
     hinit0       :      0.06s CPU      0.07s WALL (       1 calls)

     Called by electrons:
     c_bands      :      0.89s CPU      1.05s WALL (       7 calls)
     sum_band     :      0.17s CPU      0.21s WALL (       7 calls)
     v_of_rho     :      0.01s CPU      0.01s WALL (       7 calls)
     v_h          :      0.00s CPU      0.00s WALL (       7 calls)
     v_xc         :      0.01s CPU      0.01s WALL (       7 calls)
     newd         :      0.02s CPU      0.03s WALL (       7 calls)
     PAW_pot      :      0.25s CPU      0.26s WALL (       7 calls)
     mix_rho      :      0.00s CPU      0.00s WALL (       7 calls)

     Called by c_bands:
     init_us_2    :      0.03s CPU      0.04s WALL (    2925 calls)
     cegterg      :      0.84s CPU      0.99s WALL (    1365 calls)

     Called by sum_band:
     sum_band:wei :      0.00s CPU      0.00s WALL (       7 calls)
     sum_band:loo :      0.14s CPU      0.17s WALL (       7 calls)
     sum_band:buf :      0.00s CPU      0.00s WALL (    1365 calls)
     sum_band:ini :      0.01s CPU      0.02s WALL (    1365 calls)
     sum_band:cal :      0.01s CPU      0.01s WALL (    1365 calls)
     sum_band:bec :      0.00s CPU      0.00s WALL (    1365 calls)
     addusdens    :      0.03s CPU      0.03s WALL (       7 calls)
                                        0.00s GPU  (       7 calls)
     addusd:skk   :      0.00s CPU      0.00s WALL (       7 calls)
                                        0.00s GPU  (       7 calls)

     Called by *egterg:
     cdiaghg      :      0.13s CPU      0.16s WALL (    4260 calls)
     cegterg:over :      0.02s CPU      0.03s WALL (    3090 calls)
     cegterg:upda :      0.01s CPU      0.01s WALL (    3090 calls)
     cegterg:last :      0.02s CPU      0.02s WALL (    2435 calls)
     h_psi        :      0.65s CPU      0.77s WALL (    4650 calls)
     s_psi        :      0.01s CPU      0.02s WALL (    4650 calls)
     g_psi        :      0.00s CPU      0.01s WALL (    3090 calls)

     Called by h_psi:
     h_psi:calbec :      0.02s CPU      0.03s WALL (    4650 calls)
     vloc_psi     :      0.61s CPU      0.71s WALL (    4650 calls)
                                        0.00s GPU  (    4650 calls)
     add_vuspsi   :      0.02s CPU      0.02s WALL (    4650 calls)

     General routines
     calbec       :      0.03s CPU      0.03s WALL (    6015 calls)
     fft          :      0.02s CPU      0.02s WALL (      90 calls)
     ffts         :      0.06s CPU      0.06s WALL (      14 calls)
     fftw         :      0.61s CPU      0.71s WALL (   84124 calls)
     interpolate  :      0.06s CPU      0.06s WALL (       7 calls)

     Parallel routines

     PAW routines
     PAW_pot      :      0.25s CPU      0.26s WALL (       7 calls)
     PAW_symme    :      0.00s CPU      0.00s WALL (      14 calls)

     PWSCF        :      1.59s CPU      1.81s WALL


   This run was terminated on:   2:58:55   6Mar2026            

=------------------------------------------------------------------------------=
   JOB DONE.
=------------------------------------------------------------------------------=
