LAMMPS (7 Feb 2024 - Update 1)
OMP_NUM_THREADS environment is not set. Defaulting to 1 thread. (src/comm.cpp:98)
  using 1 OpenMP thread(s) per MPI task
# Step 3: Two-phase coexistence - run at target temperature
# Usage: lmp -var T 933 -in in.step3_coexistence.lmp

units           metal
dimension       3
boundary        p p p
atom_style      atomic

read_data       twophase_950K.dat
Reading data file ...
  orthogonal box = (-0.31717725 -0.31717725 -0.6343545) to (40.817177 40.817177 81.634354)
  1 by 1 by 1 MPI processor grid
  reading atoms ...
  8000 atoms
  reading velocities ...
  8000 velocities
  read_data CPU = 0.014 seconds

mass            1 26.982

pair_style      eam/alloy
pair_coeff      * * /usr/share/lammps/potentials/Al_zhou.eam.alloy Al
Reading eam/alloy potential file /usr/share/lammps/potentials/Al_zhou.eam.alloy with DATE: 2007-10-12

# Run NPT at target temperature
fix             1 all npt temp ${T} ${T} 0.1 aniso 0.0 0.0 1.0
fix             1 all npt temp 920 ${T} 0.1 aniso 0.0 0.0 1.0
fix             1 all npt temp 920 920 0.1 aniso 0.0 0.0 1.0

thermo          500
thermo_style    custom step temp pe ke etotal press vol

run             30000
Neighbor list info ...
  update: every = 1 steps, delay = 0 steps, check = yes
  max neighbors/atom: 2000, page size: 100000
  master list distance cutoff = 12.1025
  ghost atom cutoff = 12.1025
  binsize = 6.05125, bins = 7 7 14
  1 neighbor lists, perpetual/occasional/extra = 1 0 0
  (1) pair eam/alloy, perpetual
      attributes: half, newton on
      pair build: half/bin/atomonly/newton
      stencil: half/bin/3d
      bin: standard
Per MPI rank memory allocation (min/avg/max) = 13.07 | 13.07 | 13.07 Mbytes
   Step          Temp          PotEng         KinEng         TotEng         Press          Volume    
         0   936.7322      -27037.44       968.53603     -26068.904      54239.487      139201.54    
       500   892.522       -26987.933      922.82482     -26065.108      325.34396      153438.61    
      1000   926.14679     -26932.539      957.59123     -25974.948     -337.68951      154262.67    
      1500   923.69386     -26925.122      955.05502     -25970.067     -258.38103      154274.77    
      2000   920.45651     -26932.43       951.70776     -25980.722     -259.65104      154176.98    
      2500   920.54533     -26933.669      951.79959     -25981.869      262.54175      154061.43    
      3000   930.78534     -26937.775      962.38727     -25975.388      116.45205      154075.93    
      3500   925.39595     -26959.688      956.8149      -26002.873      119.68762      153871.18    
      4000   923.17505     -26948.88       954.51859     -25994.362     -530.4491       154141.22    
      4500   907.9901      -26933.45       938.81809     -25994.632     -256.17797      154206.97    
      5000   923.93433     -26916.041      955.30366     -25960.737      232.34178      154205.89    
      5500   936.4983      -26938.687      968.2942      -25970.393      79.178512      154141.66    
      6000   937.53424     -26925.585      969.36531     -25956.219     -527.70498      154400.68    
      6500   919.06307     -26953.921      950.267       -26003.654      222.82234      153885.85    
      7000   922.75201     -26930.197      954.0812      -25976.116      147.32561      154182.78    
      7500   917.4837      -26912.624      948.63401     -25963.99       13.973841      154350.65    
      8000   913.28059     -26952.335      944.2882      -26008.047     -850.82182      154216.96    
      8500   908.45547     -26936.704      939.29926     -25997.405     -592.4978       154268.49    
      9000   941.74388     -26929.74       973.71787     -25956.022      1006.9291      153930.1     
      9500   920.16949     -26923.397      951.41099     -25971.986      346.18206      154076.46    
     10000   919.77982     -26930.542      951.00809     -25979.533     -820.20576      154408.17    
     10500   901.88814     -26934.409      932.50896     -26001.9        331.37653      154004.95    
     11000   926.66879     -26925.317      958.13095     -25967.186      459.22803      154170.86    
     11500   901.64627     -26927.407      932.25887     -25995.148      555.69158      153957.07    
     12000   934.02893     -26943.61       965.74099     -25977.869     -131.09567      154160.62    
     12500   911.23573     -26917.114      942.17391     -25974.94       756.68467      154055.15    
     13000   928.09926     -26949.021      959.61        -25989.411      174.40616      153923.22    
     13500   925.16164     -26939.364      956.57264     -25982.792     -287.17896      154187.47    
     14000   905.40813     -26965.66       936.14846     -26029.512     -799.0818       154012.76    
     14500   938.8501      -26949.669      970.72585     -25978.943      252.49913      153961.19    
     15000   919.41661     -26932.157      950.63255     -25981.524      682.3126       153992.01    
     15500   918.43127     -26940.187      949.61375     -25990.573      279.38262      153993.62    
     16000   916.16239     -26942.892      947.26784     -25995.624     -1275.4402      154381.69    
     16500   917.45797     -26946.753      948.60741     -25998.146      506.19242      153935.74    
     17000   921.65128     -26938.624      952.94309     -25985.681      485.6731       153960.12    
     17500   914.20639     -26924.93       945.24543     -25979.684     -264.07163      154262.43    
     18000   942.69799     -26948.142      974.70438     -25973.437     -776.54231      154198.81    
     18500   927.70514     -26950.064      959.20249     -25990.861      372.20424      153885.8     
     19000   915.51585     -26922.006      946.59935     -25975.406      87.386048      154234.21    
     19500   907.1661      -26960.265      937.96611     -26022.299     -50.183496      153907.4     
     20000   927.1109      -26923.336      958.58807     -25964.748      114.42639      154204.95    
     20500   913.24314     -26930.499      944.24948     -25986.25      -155.5649       154185.07    
     21000   921.87569     -26927.982      953.17513     -25974.807     -950.23479      154451.32    
     21500   919.50285     -26927.49       950.72172     -25976.768      714.62319      153950.29    
     22000   926.57257     -26936.827      958.03146     -25978.796      1262.1925      153807.41    
     22500   904.32659     -26923.024      935.03019     -25987.994     -870.10726      154436.53    
     23000   918.43294     -26941.538      949.61549     -25991.922     -792.73822      154294.37    
     23500   923.05499     -26947.19       954.39446     -25992.796      1465.7764      153683.53    
     24000   917.15179     -26942.542      948.29083     -25994.251      38.938297      154094.9     
     24500   912.45974     -26936.19       943.43948     -25992.751     -772.03489      154293.77    
     25000   916.75114     -26940.198      947.87658     -25992.322      382.39331      153961.9     
     25500   927.76205     -26922.997      959.26134     -25963.736      706.75819      154108.46    
     26000   919.46088     -26939.51       950.67833     -25988.831     -1046.9955      154405.28    
     26500   908.21584     -26931.735      939.05149     -25992.684     -418.76525      154271.6     
     27000   912.28775     -26922.716      943.26165     -25979.454      923.47951      153959.38    
     27500   935.88305     -26928.21       967.65806     -25960.552      867.72824      153942       
     28000   915.40322     -26938.941      946.4829      -25992.458     -308.22329      154174.06    
     28500   920.06979     -26922.54       951.3079      -25971.233     -650.09596      154442.21    
     29000   927.44178     -26937.09       958.93019     -25978.16      -91.295875      154132.61    
     29500   921.31227     -26933.33       952.59257     -25980.737      1343.8637      153770.57    
     30000   920.54795     -26933.893      951.80231     -25982.091     -177.40685      154169.07    
Loop time of 644.313 on 1 procs for 30000 steps with 8000 atoms

Performance: 4.023 ns/day, 5.966 hours/ns, 46.561 timesteps/s, 372.490 katom-step/s
100.0% CPU use with 1 MPI tasks x 1 OpenMP threads

MPI task timing breakdown:
Section |  min time  |  avg time  |  max time  |%varavg| %total
---------------------------------------------------------------
Pair    | 624.98     | 624.98     | 624.98     |   0.0 | 97.00
Neigh   | 13.186     | 13.186     | 13.186     |   0.0 |  2.05
Comm    | 1.2629     | 1.2629     | 1.2629     |   0.0 |  0.20
Output  | 0.0031725  | 0.0031725  | 0.0031725  |   0.0 |  0.00
Modify  | 4.1374     | 4.1374     | 4.1374     |   0.0 |  0.64
Other   |            | 0.7428     |            |       |  0.12

Nlocal:           8000 ave        8000 max        8000 min
Histogram: 1 0 0 0 0 0 0 0 0 0
Nghost:          17363 ave       17363 max       17363 min
Histogram: 1 0 0 0 0 0 0 0 0 0
Neighs:    1.53611e+06 ave 1.53611e+06 max 1.53611e+06 min
Histogram: 1 0 0 0 0 0 0 0 0 0

Total # of neighbors = 1536106
Ave neighs/atom = 192.01325
Neighbor list builds = 712
Dangerous builds = 0

unfix           1

write_data      final_T${T}.dat
write_data      final_T920.dat
System init for write_data ...

print "Coexistence run at T=${T} K done. Final temp: $(temp)"
Coexistence run at T=920 K done. Final temp: 920.54795467750363969
Total wall time: 0:10:44
