LAMMPS (7 Feb 2024 - Update 1)
OMP_NUM_THREADS environment is not set. Defaulting to 1 thread. (src/comm.cpp:98)
  using 1 OpenMP thread(s) per MPI task
# Step 3: Two-phase coexistence - run at target temperature
# Usage: lmp -var T 933 -in in.step3_coexistence.lmp

units           metal
dimension       3
boundary        p p p
atom_style      atomic

read_data       twophase_950K.dat
Reading data file ...
  orthogonal box = (-0.31717725 -0.31717725 -0.6343545) to (40.817177 40.817177 81.634354)
  1 by 1 by 1 MPI processor grid
  reading atoms ...
  8000 atoms
  reading velocities ...
  8000 velocities
  read_data CPU = 0.014 seconds

mass            1 26.982

pair_style      eam/alloy
pair_coeff      * * /usr/share/lammps/potentials/Al_zhou.eam.alloy Al
Reading eam/alloy potential file /usr/share/lammps/potentials/Al_zhou.eam.alloy with DATE: 2007-10-12

# Run NPT at target temperature
fix             1 all npt temp ${T} ${T} 0.1 aniso 0.0 0.0 1.0
fix             1 all npt temp 880 ${T} 0.1 aniso 0.0 0.0 1.0
fix             1 all npt temp 880 880 0.1 aniso 0.0 0.0 1.0

thermo          500
thermo_style    custom step temp pe ke etotal press vol

run             30000
Neighbor list info ...
  update: every = 1 steps, delay = 0 steps, check = yes
  max neighbors/atom: 2000, page size: 100000
  master list distance cutoff = 12.1025
  ghost atom cutoff = 12.1025
  binsize = 6.05125, bins = 7 7 14
  1 neighbor lists, perpetual/occasional/extra = 1 0 0
  (1) pair eam/alloy, perpetual
      attributes: half, newton on
      pair build: half/bin/atomonly/newton
      stencil: half/bin/3d
      bin: standard
Per MPI rank memory allocation (min/avg/max) = 13.07 | 13.07 | 13.07 Mbytes
   Step          Temp          PotEng         KinEng         TotEng         Press          Volume    
         0   936.7322      -27037.44       968.53603     -26068.904      54239.487      139201.54    
       500   862.25584     -27020.978      891.53106     -26129.447      346.94198      153079.54    
      1000   867.17239     -26967.026      896.61454     -26070.411      376.29219      153610.24    
      1500   886.04278     -26996.477      916.12561     -26080.351     -128.13769      153500.74    
      2000   869.4968      -26997.846      899.01786     -26098.829      89.372987      153430.61    
      2500   874.31706     -26992.117      904.00178     -26088.115      23.466643      153530.76    
      3000   871.84894     -26983.243      901.44987     -26081.793      252.00563      153538.6     
      3500   873.2767      -26996.809      902.9261      -26093.883     -280.05714      153482.18    
      4000   886.86561     -26977.98       916.97638     -26061.003      335.26958      153553.03    
      4500   879.14831     -26975.707      908.99707     -26066.71       204.11595      153611.06    
      5000   889.39063     -26981.93       919.58713     -26062.343     -40.282207      153631.36    
      5500   873.39829     -26993.439      903.05182     -26090.387     -542.28963      153586.01    
      6000   873.59971     -26993.306      903.26008     -26090.046     -233.36618      153588.93    
      6500   871.66805     -26991.704      901.26284     -26090.441     -255.21862      153576.02    
      7000   880.83135     -26992.43       910.73725     -26081.693      1045.7429      153276.03    
      7500   875.9602      -26971.776      905.70071     -26066.075     -1259.8451      154034.78    
      8000   882.12395     -27002.484      912.07373     -26090.41      -681.00765      153564.39    
      8500   882.9211      -26982.575      912.89795     -26069.677      1217.094       153262.48    
      9000   879.80317     -26984.454      909.67416     -26074.78      -615.23047      153731.23    
      9500   873.75347     -26989.737      903.41906     -26086.318      70.133425      153516.62    
     10000   878.97194     -26978.993      908.8147      -26070.179      206.49376      153571.89    
     10500   878.18548     -27001.236      908.00154     -26093.235     -340.9094       153537.39    
     11000   905.29319     -26981.62       936.02962     -26045.591      48.26169       153677.47    
     11500   886.56938     -26969.905      916.6701      -26053.235     -164.93214      153802.14    
     12000   877.98956     -26987.568      907.79898     -26079.769     -155.38153      153623.14    
     12500   880.3023      -26991.794      910.19023     -26081.604     -549.05926      153721.25    
     13000   886.6843      -26978.949      916.78892     -26062.16       106.01243      153690.77    
     13500   890.81535     -26987.199      921.06023     -26066.139      1229.7666      153224.27    
     14000   870.47263     -26994.502      900.02683     -26094.476     -24.986864      153434.24    
     14500   879.90342     -26979.425      909.77781     -26069.648     -804.43321      153826.98    
     15000   876.19278     -26997.18       905.94119     -26091.239      513.39384      153338.1     
     15500   880.85835     -26977.725      910.76517     -26066.96      -44.123233      153684.82    
     16000   889.88935     -26993.448      920.10278     -26073.345     -318.72734      153622.5     
     16500   887.72841     -26980.325      917.86848     -26062.457     -334.74833      153723.67    
     17000   887.00318     -26994.941      917.11862     -26077.822     -544.23676      153641.33    
     17500   883.42757     -26990.521      913.42162     -26077.099      3.5188208      153533.39    
     18000   874.93765     -27005.304      904.64344     -26100.661     -107.97615      153450.29    
     18500   859.89142     -26986.272      889.08636     -26097.186      513.93776      153421.96    
     19000   876.30664     -26985.155      906.05891     -26079.096      417.96766      153476.81    
     19500   882.7863      -26991.162      912.75857     -26078.404     -423.31882      153611.6     
     20000   884.27962     -26997.896      914.3026      -26083.594     -699.97354      153651.58    
     20500   874.78626     -26991.787      904.48691     -26087.3        1266.6733      153158.83    
     21000   867.3668      -26998.756      896.81555     -26101.94       603.57748      153211.87    
     21500   871.00739     -26987.026      900.57975     -26086.446     -613.97782      153700.69    
     22000   878.96892     -26982.184      908.81158     -26073.372      493.69759      153457.62    
     22500   876.09635     -26964.429      905.84149     -26058.588      456.92742      153655.1     
     23000   863.57733     -26992.54       892.89742     -26099.642     -772.34581      153715.48    
     23500   880.4285      -26978.027      910.32072     -26067.706      153.82896      153616.4     
     24000   889.1891      -26993.788      919.37876     -26074.41       557.84251      153356.22    
     24500   896.52679     -26975.104      926.96558     -26048.139     -1341.3015      154065.04    
     25000   879.29281     -26988.609      909.14648     -26079.463     -541.80097      153737.79    
     25500   871.12989     -26982.548      900.7064      -26081.841      1490.5704      153193.74    
     26000   872.26747     -26985.495      901.88261     -26083.612      334.10023      153415.99    
     26500   870.35467     -26992.179      899.90486     -26092.274     -724.06585      153736.02    
     27000   869.75361     -26996.539      899.2834      -26097.255      193.72743      153409.01    
     27500   882.198       -26994.512      912.1503      -26082.362      896.77073      153255.18    
     28000   876.67359     -26992.356      906.43833     -26085.918     -390.14696      153624.72    
     28500   866.2339      -26984.643      895.64419     -26088.999      161.27108      153494.22    
     29000   875.23838     -26989.993      904.95439     -26085.039      1286.3614      153163.04    
     29500   883.37758     -26998.473      913.36993     -26085.103     -300.90704      153551.09    
     30000   876.26633     -26987.958      906.01724     -26081.941     -1000.3942      153829.4     
Loop time of 647.201 on 1 procs for 30000 steps with 8000 atoms

Performance: 4.005 ns/day, 5.993 hours/ns, 46.353 timesteps/s, 370.828 katom-step/s
100.0% CPU use with 1 MPI tasks x 1 OpenMP threads

MPI task timing breakdown:
Section |  min time  |  avg time  |  max time  |%varavg| %total
---------------------------------------------------------------
Pair    | 627.58     | 627.58     | 627.58     |   0.0 | 96.97
Neigh   | 13.482     | 13.482     | 13.482     |   0.0 |  2.08
Comm    | 1.2548     | 1.2548     | 1.2548     |   0.0 |  0.19
Output  | 0.0029929  | 0.0029929  | 0.0029929  |   0.0 |  0.00
Modify  | 4.1536     | 4.1536     | 4.1536     |   0.0 |  0.64
Other   |            | 0.732      |            |       |  0.11

Nlocal:           8000 ave        8000 max        8000 min
Histogram: 1 0 0 0 0 0 0 0 0 0
Nghost:          17498 ave       17498 max       17498 min
Histogram: 1 0 0 0 0 0 0 0 0 0
Neighs:    1.53933e+06 ave 1.53933e+06 max 1.53933e+06 min
Histogram: 1 0 0 0 0 0 0 0 0 0

Total # of neighbors = 1539327
Ave neighs/atom = 192.41587
Neighbor list builds = 692
Dangerous builds = 0

unfix           1

write_data      final_T${T}.dat
write_data      final_T880.dat
System init for write_data ...

print "Coexistence run at T=${T} K done. Final temp: $(temp)"
Coexistence run at T=880 K done. Final temp: 876.26632927987270705
Total wall time: 0:10:47
