LAMMPS (7 Feb 2024 - Update 1)
OMP_NUM_THREADS environment is not set. Defaulting to 1 thread. (src/comm.cpp:98)
  using 1 OpenMP thread(s) per MPI task
# Step 3: Two-phase coexistence - run at target temperature
# Usage: lmp -var T 933 -in in.step3_coexistence.lmp

units           metal
dimension       3
boundary        p p p
atom_style      atomic

read_data       twophase_950K.dat
Reading data file ...
  orthogonal box = (-0.31717725 -0.31717725 -0.6343545) to (40.817177 40.817177 81.634354)
  1 by 1 by 1 MPI processor grid
  reading atoms ...
  8000 atoms
  reading velocities ...
  8000 velocities
  read_data CPU = 0.014 seconds

mass            1 26.982

pair_style      eam/alloy
pair_coeff      * * /usr/share/lammps/potentials/Al_zhou.eam.alloy Al
Reading eam/alloy potential file /usr/share/lammps/potentials/Al_zhou.eam.alloy with DATE: 2007-10-12

# Run NPT at target temperature
fix             1 all npt temp ${T} ${T} 0.1 aniso 0.0 0.0 1.0
fix             1 all npt temp 1000 ${T} 0.1 aniso 0.0 0.0 1.0
fix             1 all npt temp 1000 1000 0.1 aniso 0.0 0.0 1.0

thermo          500
thermo_style    custom step temp pe ke etotal press vol

run             30000
Neighbor list info ...
  update: every = 1 steps, delay = 0 steps, check = yes
  max neighbors/atom: 2000, page size: 100000
  master list distance cutoff = 12.1025
  ghost atom cutoff = 12.1025
  binsize = 6.05125, bins = 7 7 14
  1 neighbor lists, perpetual/occasional/extra = 1 0 0
  (1) pair eam/alloy, perpetual
      attributes: half, newton on
      pair build: half/bin/atomonly/newton
      stencil: half/bin/3d
      bin: standard
Per MPI rank memory allocation (min/avg/max) = 13.07 | 13.07 | 13.07 Mbytes
   Step          Temp          PotEng         KinEng         TotEng         Press          Volume    
         0   936.7322      -27037.44       968.53603     -26068.904      54239.487      139201.54    
       500   953.05562     -26919.879      985.41367     -25934.465      367.37578      154152       
      1000   1000.0222     -26831.605      1033.9748     -25797.63      -356.27356      155328.12    
      1500   1013.2329     -26839.304      1047.6341     -25791.67      -193.22492      155266.9     
      2000   1010.3138     -26849.548      1044.6159     -25804.932     -295.97607      155204.78    
      2500   1006.9046     -26851.904      1041.091      -25810.813     -532.92726      155194.84    
      3000   996.51846     -26834.901      1030.3522     -25804.549     -50.135675      155239.75    
      3500   1018.338      -26841.374      1052.9125     -25788.462     -654.20351      155373.52    
      4000   1007.3987     -26843.889      1041.6018     -25802.287      108.45304      155107.99    
      4500   1001.103      -26857.621      1035.0923     -25822.529     -329.8396       155140.87    
      5000   989.66794     -26839.838      1023.269      -25816.568     -35.566289      155144.28    
      5500   1005.4131     -26849.909      1039.5487     -25810.36      -30.437388      155109.48    
      6000   999.11687     -26831.351      1033.0388     -25798.313      514.27658      155102.05    
      6500   998.37639     -26837.781      1032.2732     -25805.508     -573.07765      155339.94    
      7000   992.85927     -26844.635      1026.5687     -25818.066     -1578.3539      155552.13    
      7500   1006.7628     -26834.166      1040.9443     -25793.222      610.51883      155006.08    
      8000   1014.2138     -26841.942      1048.6483     -25793.294      1554.3731      154778.15    
      8500   1003.9324     -26821.789      1038.0178     -25783.771     -135.5957       155363.11    
      9000   989.27196     -26838.917      1022.8596     -25816.057     -1093.2302      155486.92    
      9500   988.08995     -26843.452      1021.6375     -25821.814     -524.7131       155248.26    
     10000   1003.8447     -26826.755      1037.9271     -25788.828      1050.7973      155007.69    
     10500   1002.4899     -26822.188      1036.5263     -25785.661      606.39632      155159.79    
     11000   978.45219     -26831.23       1011.6725     -25819.557     -170.49064      155251.23    
     11500   987.74407     -26837.458      1021.2799     -25816.178     -421.65385      155308.94    
     12000   1006.3382     -26831.855      1040.5053     -25791.35      -166.21611      155243.27    
     12500   1018.9273     -26845.895      1053.5218     -25792.373      774.57427      154951.32    
     13000   994.64245     -26831.423      1028.4125     -25803.01       372.17501      155110.33    
     13500   1016.8796     -26827.12       1051.4046     -25775.715     -780.4768       155583.76    
     14000   1010.0209     -26829.824      1044.3131     -25785.511     -869.86508      155544.22    
     14500   997.73937     -26840.445      1031.6145     -25808.83       492.77607      155036.01    
     15000   1004.8504     -26834.941      1038.967      -25795.974     -317.35358      155332.2     
     15500   1007.5098     -26839.682      1041.7166     -25797.966     -285.52069      155246.15    
     16000   1006.3829     -26834.83       1040.5515     -25794.279     -80.641269      155273.37    
     16500   1003.5821     -26841.861      1037.6556     -25804.206     -674.52066      155325.37    
     17000   993.59624     -26835.032      1027.3307     -25807.702     -146.8965       155233.57    
     17500   1003.9059     -26858.972      1037.9905     -25820.981      491.94703      154869.8     
     18000   996.76432     -26838.421      1030.6064     -25807.814      1507.7905      154693.44    
     18500   997.26552     -26848.586      1031.1246     -25817.461     -144.69203      155092.31    
     19000   1005.7128     -26850.732      1039.8586     -25810.873     -954.38238      155361.89    
     19500   1003.1125     -26828.173      1037.17       -25791.003     -599.60773      155473.74    
     20000   1010.0277     -26830.034      1044.32       -25785.714      18.029957      155244.03    
     20500   992.90718     -26837.68       1026.6183     -25811.062      509.68929      155003.62    
     21000   1000.913      -26841.872      1034.8959     -25806.976      112.00402      155134.12    
     21500   1008.2313     -26834.138      1042.4626     -25791.675     -289.5652       155267.9     
     22000   1015.6921     -26833.94       1050.1767     -25783.764      115.87666      155235.21    
     22500   1007.7927     -26842.501      1042.0092     -25800.492      548.92515      154981.76    
     23000   991.81965     -26834.317      1025.4938     -25808.824     -1529.6098      155640.17    
     23500   984.80271     -26821.25       1018.2386     -25803.012      9.4235568      155298.96    
     24000   986.44285     -26826.123      1019.9345     -25806.188      935.40663      154980.55    
     24500   997.61223     -26826.321      1031.4831     -25794.837      824.74087      155051.85    
     25000   995.87988     -26821.571      1029.6919     -25791.879      318.22131      155250.77    
     25500   991.60044     -26841.503      1025.2672     -25816.236     -323.77726      155212.7     
     26000   997.63759     -26829.902      1031.5093     -25798.393      140.1084       155221.98    
     26500   1008.2712     -26829.622      1042.5039     -25787.118      522.7915       155160.46    
     27000   984.25242     -26853.87       1017.6697     -25836.2        272.5413       154873.5     
     27500   996.0434      -26845.167      1029.861      -25815.306     -42.378654      155112.55    
     28000   994.96224     -26838.746      1028.7431     -25810.003     -356.48991      155280.75    
     28500   1011.3012     -26829.02       1045.6368     -25783.384     -392.85469      155435.58    
     29000   1004.2801     -26844.726      1038.3774     -25806.349      936.40706      154850.65    
     29500   1012.6428     -26830.708      1047.024      -25783.684      1172.778       154944.02    
     30000   991.3028      -26821.508      1024.9594     -25796.548     -335.93644      155409.97    
Loop time of 641.424 on 1 procs for 30000 steps with 8000 atoms

Performance: 4.041 ns/day, 5.939 hours/ns, 46.771 timesteps/s, 374.167 katom-step/s
100.0% CPU use with 1 MPI tasks x 1 OpenMP threads

MPI task timing breakdown:
Section |  min time  |  avg time  |  max time  |%varavg| %total
---------------------------------------------------------------
Pair    | 621.35     | 621.35     | 621.35     |   0.0 | 96.87
Neigh   | 13.965     | 13.965     | 13.965     |   0.0 |  2.18
Comm    | 1.2513     | 1.2513     | 1.2513     |   0.0 |  0.20
Output  | 0.0029523  | 0.0029523  | 0.0029523  |   0.0 |  0.00
Modify  | 4.1275     | 4.1275     | 4.1275     |   0.0 |  0.64
Other   |            | 0.7245     |            |       |  0.11

Nlocal:           8000 ave        8000 max        8000 min
Histogram: 1 0 0 0 0 0 0 0 0 0
Nghost:          17130 ave       17130 max       17130 min
Histogram: 1 0 0 0 0 0 0 0 0 0
Neighs:    1.52461e+06 ave 1.52461e+06 max 1.52461e+06 min
Histogram: 1 0 0 0 0 0 0 0 0 0

Total # of neighbors = 1524610
Ave neighs/atom = 190.57625
Neighbor list builds = 744
Dangerous builds = 0

unfix           1

write_data      final_T${T}.dat
write_data      final_T1000.dat
System init for write_data ...

print "Coexistence run at T=${T} K done. Final temp: $(temp)"
Coexistence run at T=1000 K done. Final temp: 991.30279843112316485
Total wall time: 0:10:41
