LAMMPS (7 Feb 2024 - Update 1)
OMP_NUM_THREADS environment is not set. Defaulting to 1 thread. (src/comm.cpp:98)
  using 1 OpenMP thread(s) per MPI task
# Step 3: Two-phase coexistence - run at target temperature
# Usage: lmp -var T 933 -in in.step3_coexistence.lmp

units           metal
dimension       3
boundary        p p p
atom_style      atomic

read_data       twophase_950K.dat
Reading data file ...
  orthogonal box = (-0.31717725 -0.31717725 -0.6343545) to (40.817177 40.817177 81.634354)
  1 by 1 by 1 MPI processor grid
  reading atoms ...
  8000 atoms
  reading velocities ...
  8000 velocities
  read_data CPU = 0.014 seconds

mass            1 26.982

pair_style      eam/alloy
pair_coeff      * * /usr/share/lammps/potentials/Al_zhou.eam.alloy Al
Reading eam/alloy potential file /usr/share/lammps/potentials/Al_zhou.eam.alloy with DATE: 2007-10-12

# Run NPT at target temperature
fix             1 all npt temp ${T} ${T} 0.1 aniso 0.0 0.0 1.0
fix             1 all npt temp 960 ${T} 0.1 aniso 0.0 0.0 1.0
fix             1 all npt temp 960 960 0.1 aniso 0.0 0.0 1.0

thermo          500
thermo_style    custom step temp pe ke etotal press vol

run             30000
Neighbor list info ...
  update: every = 1 steps, delay = 0 steps, check = yes
  max neighbors/atom: 2000, page size: 100000
  master list distance cutoff = 12.1025
  ghost atom cutoff = 12.1025
  binsize = 6.05125, bins = 7 7 14
  1 neighbor lists, perpetual/occasional/extra = 1 0 0
  (1) pair eam/alloy, perpetual
      attributes: half, newton on
      pair build: half/bin/atomonly/newton
      stencil: half/bin/3d
      bin: standard
Per MPI rank memory allocation (min/avg/max) = 13.07 | 13.07 | 13.07 Mbytes
   Step          Temp          PotEng         KinEng         TotEng         Press          Volume    
         0   936.7322      -27037.44       968.53603     -26068.904      54239.487      139201.54    
       500   925.36675     -26952.399      956.78471     -25995.614      270.87042      153830.57    
      1000   967.53095     -26878.184      1000.3805     -25877.804     -446.10407      154868.81    
      1500   964.56351     -26880.872      997.31227     -25883.56      -173.89892      154758.59    
      2000   954.07237     -26898.306      986.46494     -25911.841      298.81735      154439.12    
      2500   966.77031     -26876.094      999.594       -25876.5       -263.0685       154856.36    
      3000   983.16688     -26892.391      1016.5473     -25875.843     -165.19151      154733.72    
      3500   972.66393     -26879.787      1005.6877     -25874.1       -146.31643      154786.13    
      4000   955.44703     -26886.002      987.88627     -25898.116     -215.97094      154671.86    
      4500   949.4304      -26876.521      981.66537     -25894.856     -683.43798      154937.55    
      5000   951.94618     -26876.976      984.26656     -25892.71       181.24345      154715.68    
      5500   972.83954     -26900.735      1005.8693     -25894.865      1252.262       154213.59    
      6000   982.86082     -26888.923      1016.2308     -25872.692      152.65322      154650.88    
      6500   967.93332     -26889.052      1000.7965     -25888.256     -1294.1492      155030.4     
      7000   953.89681     -26889.878      986.28342     -25903.595     -209.1806       154654.97    
      7500   963.60553     -26880.69       996.32177     -25884.368      356.63554      154657.69    
      8000   966.95247     -26877.086      999.78234     -25877.304     -284.6462       154837.76    
      8500   954.19503     -26896.019      986.59176     -25909.427     -267.79398      154666.43    
      9000   968.51261     -26898.988      1001.3955     -25897.593     -508.55783      154683.3     
      9500   952.6198      -26865.651      984.96305     -25880.688     -128.12539      154879.32    
     10000   966.51163     -26892.391      999.32653     -25893.065      166.71355      154579.09    
     10500   974.33317     -26873.135      1007.4136     -25865.722      743.92314      154591.87    
     11000   948.38363     -26892.163      980.58305     -25911.579     -236.09743      154627.81    
     11500   965.14667     -26883.827      997.91524     -25885.912     -682.51473      154930.17    
     12000   974.88803     -26896.578      1007.9873     -25888.59       234.33677      154559.4     
     12500   949.75401     -26883.229      981.99996     -25901.229      865.73473      154448.3     
     13000   951.34009     -26891.599      983.6399      -25907.959      600.16715      154413.22    
     13500   968.65575     -26889.94       1001.5435     -25888.396     -632.43168      154864.68    
     14000   961.46255     -26876.091      994.10603     -25881.985     -628.18866      154965.82    
     14500   972.8225      -26903.864      1005.8517     -25898.012     -345.24127      154630.74    
     15000   958.27052     -26895.856      990.80563     -25905.05       867.3945       154334.69    
     15500   970.17853     -26893.808      1003.1179     -25890.69       312.91177      154538.04    
     16000   953.70772     -26872.507      986.08791     -25886.419     -265.11128      154833.62    
     16500   969.97128     -26900.163      1002.9037     -25897.259      174.05424      154532.68    
     17000   955.79501     -26877.64       988.24606     -25889.394      769.07191      154519.11    
     17500   954.82905     -26876.671      987.24731     -25889.424      315.25882      154652.49    
     18000   960.5776      -26881.395      993.19104     -25888.204     -87.283889      154733.58    
     18500   957.1879      -26890.88       989.68625     -25901.194      21.521495      154585.1     
     19000   955.6399      -26879.276      988.08569     -25891.19       268.24908      154664.92    
     19500   972.37104     -26880.931      1005.3849     -25875.546     -220.56134      154831.63    
     20000   964.45995     -26894.754      997.2052      -25897.549     -366.03733      154774.52    
     20500   968.73662     -26898.72       1001.6271     -25897.093     -134.96886      154613.93    
     21000   964.33903     -26865.425      997.08017     -25868.345      421.38064      154702.62    
     21500   952.61653     -26872.101      984.95967     -25887.142      8.8247345      154803.21    
     22000   953.57436     -26884.541      985.95003     -25898.591      707.05208      154502.3     
     22500   950.80896     -26890.632      983.09073     -25907.542      86.637825      154587.26    
     23000   950.0863      -26875.138      982.34354     -25892.794      202.19942      154646.58    
     23500   959.77818     -26882.989      992.36447     -25890.625      169.59376      154653.42    
     24000   962.92114     -26877.764      995.61414     -25882.15       445.32972      154624.73    
     24500   958.61915     -26897.918      991.16609     -25906.752     -206.38629      154602.48    
     25000   947.62592     -26889.936      979.79962     -25910.136     -426.50527      154755.04    
     25500   950.9332      -26875.205      983.21919     -25891.986      278.9534       154650.17    
     26000   960.54696     -26872.528      993.15935     -25879.369     -481.03829      154912.7     
     26500   950.94395     -26899.684      983.2303      -25916.453     -29.374523      154507.56    
     27000   962.14727     -26887.658      994.814       -25892.844      89.956791      154614.3     
     27500   956.27062     -26869.236      988.73782     -25880.499     -520.0628       154987.07    
     28000   965.8634      -26884.336      998.6563      -25885.679     -139.24195      154713.74    
     28500   960.62956     -26893.917      993.24475     -25900.672      609.93496      154422.24    
     29000   973.34498     -26856.625      1006.3919     -25850.233     -337.13562      154983.24    
     29500   946.02801     -26879.264      978.14746     -25901.117     -1465.1182      155133.68    
     30000   949.26071     -26897.582      981.48991     -25916.092      302.32451      154467.19    
Loop time of 643.01 on 1 procs for 30000 steps with 8000 atoms

Performance: 4.031 ns/day, 5.954 hours/ns, 46.656 timesteps/s, 373.245 katom-step/s
100.0% CPU use with 1 MPI tasks x 1 OpenMP threads

MPI task timing breakdown:
Section |  min time  |  avg time  |  max time  |%varavg| %total
---------------------------------------------------------------
Pair    | 623.59     | 623.59     | 623.59     |   0.0 | 96.98
Neigh   | 13.291     | 13.291     | 13.291     |   0.0 |  2.07
Comm    | 1.2463     | 1.2463     | 1.2463     |   0.0 |  0.19
Output  | 0.0041633  | 0.0041633  | 0.0041633  |   0.0 |  0.00
Modify  | 4.1495     | 4.1495     | 4.1495     |   0.0 |  0.65
Other   |            | 0.7305     |            |       |  0.11

Nlocal:           8000 ave        8000 max        8000 min
Histogram: 1 0 0 0 0 0 0 0 0 0
Nghost:          17102 ave       17102 max       17102 min
Histogram: 1 0 0 0 0 0 0 0 0 0
Neighs:     1.5319e+06 ave  1.5319e+06 max  1.5319e+06 min
Histogram: 1 0 0 0 0 0 0 0 0 0

Total # of neighbors = 1531899
Ave neighs/atom = 191.48737
Neighbor list builds = 724
Dangerous builds = 0

unfix           1

write_data      final_T${T}.dat
write_data      final_T960.dat
System init for write_data ...

print "Coexistence run at T=${T} K done. Final temp: $(temp)"
Coexistence run at T=960 K done. Final temp: 949.26070625757699872
Total wall time: 0:10:43
