LAMMPS data file via write_data, version 7 Feb 2024, timestep = 30000, units = metal

8000 atoms
1 atom types

-1.6884349862496748 42.18843498624953 xlo xhi
-1.1924956573549892 41.69249565735451 ylo yhi
-0.5454739570170233 81.54547395701589 zlo zhi

Masses

1 26.982

Atoms # atomic

208 1 1.0798833396649954 1.616425318811527 3.4877959094971613 0 0 0
1170 1 4.516242183268713 40.37942666695256 3.925280261963385 0 0 0
891 1 4.3231478356523505 0.048582639087328294 4.075646038888057 0 0 0
404 1 0.5771709960049081 2.755725121787865 5.553206272701277 0 0 0
7706 1 3.0661947156537925 6.839308230361542 4.224069674321217 1 0 1
1597 1 -1.4598763198840568 41.06284553049781 2.5442709804096046 1 0 0
7572 1 6.500848803392108 6.643171542194127 1.5709137195023826 0 1 1
927 1 3.507290627804352 3.3709522113475643 4.748490549659721 0 0 0
447 1 0.6319014588379055 40.27667088039442 1.4873733430013756 0 -1 0
475 1 1.0948063754763968 -1.1530753682639923 3.3510443945316233 1 0 0
7793 1 6.412713953641536 3.247161747664249 0.870226861591723 1 0 1
6083 1 7.275865787723886 4.593961884305935 6.112335108850375 0 0 1
53 1 5.8027307171095694 2.0479196689693864 3.1484893396434805 0 0 0
852 1 5.643350736586968 4.84407868403424 4.3303223357091465 0 0 0
1246 1 8.556192554096304 -0.38054384575847855 2.9989476939054343 0 0 0
14 1 3.3344615976244345 -0.7352219487574705 1.558919244373787 0 0 0
485 1 9.234007869783948 3.406269999962303 -0.45727276713505205 0 0 0
717 1 8.55318542330599 2.0378160466262676 1.829372895890661 1 1 0
7718 1 8.172460864212214 9.523340289119764 1.9730297831243493 1 0 1
1295 1 8.59776122830021 4.248810078726 2.992998711068463 0 0 0
809 1 9.066196907755483 0.8883875589454422 81.41298128953366 0 0 -1
489 1 10.238955672393375 2.133626118891755 6.907587211231623 0 0 0
1260 1 14.408617211326174 -0.4082429960033248 4.916242178504117 0 0 0
131 1 13.540224443158833 4.2850867183240515 3.475076901606533 0 0 0
47 1 11.505032346189735 41.092316929421266 4.454392396606113 0 -1 0
7220 1 16.139569003865056 40.95145913806807 1.1269922483841237 0 -1 1
7904 1 13.074506215452375 1.2256033612971655 3.66399755108083 0 1 1
162 1 10.711970326976179 1.4841113603415605 3.8665452365199435 0 0 0
1932 1 12.08426546222901 0.15205950649474542 6.192643137559026 0 1 0
7175 1 13.027260091977942 -1.0824746090681536 80.8078990343931 0 1 0
7696 1 11.365858026698604 3.4739884396348533 1.3068109599388453 0 0 1
7335 1 12.484990883364233 5.878007013920027 0.7406737151028358 0 0 1
1562 1 13.028491353919687 2.9132556721842606 5.647436136238968 0 1 0
7997 1 13.268359513023146 2.9335887585853158 -0.3090038352440416 1 1 1
7330 1 17.918818883173497 3.8951473559561265 1.6040604629919786 0 0 1
7299 1 15.290750409930308 1.7532889936983018 1.8839884826682365 0 0 1
6730 1 17.59559493645216 -0.12907050411570675 3.8554732686967883 0 1 1
7736 1 23.53316674485694 3.1927109142249526 2.364855717525269 0 0 1
457 1 20.007091549452294 -0.4416939092104961 5.142498461057274 0 0 0
7725 1 20.829885605372887 1.471520945728881 3.510477976935734 0 0 1
1632 1 22.8522098977087 -0.051154614620617656 5.203676607058288 0 0 0
6818 1 22.085043924383296 40.87292554637268 3.803713492494203 0 -1 1
828 1 22.74271414838986 3.611195683844869 4.898113377258475 0 0 0
481 1 18.7792344631336 0.4420596006577888 1.751544034114613 0 0 0
139 1 19.05194393206421 6.801961391672928 4.890036553072189 0 0 0
7964 1 20.817453760558312 1.8498587464970764 0.5599688566146939 0 1 1
506 1 20.524703213637885 41.217127925039165 0.8889923616386628 0 -1 0
7206 1 25.198575602634236 1.060473817828718 1.8970926904974896 0 0 1
143 1 26.672980185319954 39.52534393011906 4.791755859535982 0 -1 0
187 1 29.119597750256858 4.292808184901279 2.305280781825359 0 0 0
35 1 26.22657876538668 3.0552307894055 6.795105369301752 0 0 0
7647 1 28.161554108596263 1.506985396680025 2.89534622743731 0 0 1
6823 1 26.304928862806776 3.7719892758124036 1.9828873400200169 0 0 1
7543 1 25.872267172772176 1.6048851981990024 4.436141350214522 0 1 1
29 1 25.915616073877 0.28487320077910394 79.21362952654816 0 0 -1
7920 1 28.212038695162978 -0.9145514714794438 4.4166080931711855 0 1 1
549 1 27.66322328460856 4.18440812926465 4.60362530200941 0 0 0
5624 1 25.367623000705766 41.256043379756754 2.6546544451619485 0 -1 1
1391 1 30.032697122359295 2.750579857436465 0.4857393694007941 0 0 0
560 1 29.829274533492768 -0.4039177035036561 1.323004805043483 0 0 0
348 1 33.94125024430837 1.47099368921487 2.7356398965588093 0 1 0
6980 1 32.896180240950144 41.3737449716842 3.423704477259102 0 -1 1
107 1 33.565082139154136 4.521679388688351 4.302145751184424 0 0 0
108 1 31.941930691742265 6.465582525622227 2.10222965010979 0 0 0
7609 1 37.047565395763385 2.995052455800602 80.21047652207731 -1 0 0
1190 1 36.009416290422 1.4266380125741276 0.7040324516286294 0 1 0
909 1 30.728889307402092 0.44710174862876517 3.55760545914596 0 0 0
235 1 35.43441042512732 40.45643571719001 1.1726563295159305 0 0 0
799 1 36.93486922703455 39.11563030169334 -0.4873781815931584 0 0 0
918 1 35.30884276192988 -0.23080868275306343 6.040858248062551 0 0 0
906 1 31.628213316291394 3.3842076478270906 2.7569686585227062 0 0 0
830 1 33.95198673319564 -0.24251838707813034 0.7871200730842218 0 0 0
6 1 37.66890065026705 -0.8382513573665944 1.0593072933038623 -1 0 0
921 1 38.153801527234435 2.633939429116539 1.9524282888666589 -1 0 0
7594 1 -1.500470021150166 41.022564204128464 81.28826370516126 1 0 0
6517 1 40.33337791835688 0.5182230144384339 0.8354029146465711 0 0 1
516 1 36.52940024339249 0.7626034339971357 3.3106442331884613 0 0 0
405 1 38.14140584012447 41.581752188373784 5.097298350294956 -1 -1 0
851 1 39.95008688598773 1.0945273212171043 3.676928821766751 -1 0 0
1517 1 -1.440625192822531 0.9227224569385033 1.8651772222606602 1 1 0
973 1 37.169620854575776 5.962835838387734 2.3111130347112696 -1 0 0
7675 1 40.60624434181628 3.500888079018212 2.549813790804328 0 0 1
1263 1 1.7613474698550866 4.795799225463342 3.136528486666041 1 0 0
916 1 39.06367947746473 0.7045062588294431 81.01282387421243 0 0 -1
6832 1 0.8612371382293138 7.8362168116155555 5.844642356185558 1 0 1
7722 1 -0.22317006256888305 9.518415312929395 1.7096015495043808 0 0 1
1473 1 -1.531425491271389 10.117221345360571 5.511634571243201 1 0 0
408 1 4.853957774677404 9.779881680070151 1.094476561941766 0 0 0
563 1 2.5539751442164382 11.251741232173991 1.8774357612351622 0 0 0
958 1 2.823342425768649 8.482478386064114 2.4675982651646655 1 0 0
954 1 41.40096424283376 10.260106902276307 3.327876693823794 0 0 0
569 1 4.2872279174464065 5.274957681171809 2.127736532218617 0 0 0
445 1 -1.539840935261 6.221268675798825 1.537728128607616 0 0 0
853 1 0.4625897810418924 7.6924149449193155 3.236255644303308 0 0 0
115 1 41.52212114079388 7.772364469666536 3.535590346967087 0 0 0
91 1 3.528394486090077 10.751754297406176 80.51534044476884 0 0 -1
7676 1 5.294132022561232 8.002877563723407 2.8834904512309336 1 0 1
923 1 5.541022495266063 7.562850568934751 5.42656975014493 0 0 0
765 1 4.636004751396244 12.385139949115297 0.07887540999452514 0 1 0
209 1 10.594259507238963 10.870776056955771 0.5533997470401506 0 0 0
807 1 10.6036377298315 5.742273520472624 3.478829325433373 0 0 0
82 1 7.480060483217397 10.586030871796805 4.07734939463686 -1 0 0
6846 1 6.3695096944150045 11.863997332945022 1.981857669260739 0 0 1
364 1 8.088067118218843 6.742249070732587 4.344493457192457 0 1 0
842 1 6.639920434649392 10.814647459519813 81.29686513428018 0 0 -1
924 1 9.37815927456838 10.223683544758911 80.2155119801592 0 0 -1
1645 1 11.136230421788294 10.446622199784136 3.25909872780978 0 0 0
536 1 11.043317066665063 7.811974871843638 1.8450913881067503 0 0 0
104 1 13.37065436984276 11.757070723159433 2.022140694974779 0 0 0
619 1 15.073019927956391 4.998393230875879 6.536659220257305 0 0 0
313 1 14.83644945922931 6.7396758441641005 2.2535462112812166 0 0 0
6936 1 15.809910278659562 9.86203548617921 2.479134066361302 0 0 1
771 1 12.675357831192523 8.456547800196361 3.665145373432769 0 1 0
6786 1 13.464767129836783 7.516521079811911 7.544376002223027 1 1 1
454 1 16.015303929899673 4.997744200090904 4.1893812166515785 0 0 0
615 1 14.834998368205742 7.72033248819786 5.202435792821822 0 0 0
901 1 17.89331616867276 9.012839552235828 5.366947633351376 0 0 0
423 1 19.19697082011208 4.262042107127415 4.212034469578473 0 0 0
1885 1 13.121515305602541 12.206388608779788 81.44009134942083 0 0 -1
163 1 15.923945145322826 12.550367198979263 3.2882388124742152 0 0 0
134 1 13.211952286602072 9.43901013140639 0.6517091341893988 0 0 0
7969 1 17.15351860231918 7.90916774606681 3.0681642650015255 0 1 1
1192 1 20.30720491952128 8.010199134526525 6.933566328382159 0 1 0
59 1 21.361939920628455 8.931459500047826 4.643383548939125 0 0 0
1106 1 20.36518085890833 11.041674954755573 5.269183196569681 0 1 0
5303 1 17.05743017154028 7.054187973324693 6.842136630766236 0 0 1
1745 1 19.55883672860855 7.5490103696242326 2.262805400159171 0 0 0
7738 1 21.011132247360255 4.198490182196168 2.2258389262347777 0 0 1
661 1 23.01345043835279 10.517129925663978 5.745027945974523 0 0 0
7139 1 24.28530386174708 6.507254359549321 80.37905559419237 0 1 0
7302 1 22.99157141835519 13.563438336834103 2.925861719622064 0 0 1
170 1 18.72334154353195 10.209611326849517 3.0134461724247394 0 0 0
606 1 22.064803797066883 6.400635320466512 3.694888402578452 0 0 0
1262 1 24.016808615981603 8.676810597319196 3.780896008451868 0 0 0
1582 1 26.839200111615927 6.73976270976841 2.9700828373772756 0 1 0
1187 1 29.13241949207172 8.036714436920871 4.16416408810999 0 1 0
7701 1 24.650956340270938 11.459202460493097 3.0448987246329793 0 0 1
7719 1 28.002659511229574 5.190318370325079 0.5704510002350318 0 0 1
487 1 26.132503890937727 9.151545776411913 1.4139759086767312 -1 0 0
7667 1 27.892081168509417 11.0230407624999 0.5338217335575253 0 0 1
258 1 26.691060936773848 9.123850633169292 4.950384280670973 0 1 0
1174 1 26.37389291645592 11.534170314656073 5.275606630238095 0 1 0
7585 1 29.092960909916048 10.569243441496551 5.5914564025160685 0 1 1
384 1 27.720150006332833 6.859016312776193 6.0261966459799385 0 1 0
7702 1 25.76441527556285 8.224696315747392 80.96857839034818 0 0 0
6095 1 24.69806919762788 5.628250855974528 3.8153142886343625 0 0 1
5879 1 24.51855851506705 6.88909988117576 1.3969341519313203 0 0 1
596 1 36.70149657033966 4.601715869622833 0.3696470102408478 0 0 0
305 1 30.400494701419113 6.484492675251462 0.0011842898903572374 0 0 0
496 1 31.419209509883167 8.813787375786532 2.0840150129800628 0 0 0
225 1 31.629259396733005 6.505453583504472 5.565358727792765 0 0 0
6566 1 34.106970577903276 6.401508744957819 6.1655844276452845 0 0 1
554 1 29.037737412347532 8.550349340835185 1.5090900411783186 0 0 0
7098 1 34.344251203166266 9.356997339156656 0.4833359504438839 0 0 1
1685 1 34.72310586486495 7.265184425960239 1.543062114098558 -1 0 0
1389 1 31.407157121121564 9.725611103169177 5.565268464658559 0 0 0
466 1 35.93190724352461 10.165481379414848 6.568990597412508 0 0 0
988 1 33.10416084437108 11.614733449765408 2.54070413332029 0 0 0
7918 1 34.499839982203845 9.220456831778659 3.7304081516553698 0 0 1
938 1 33.84441425449253 4.6253912804263155 1.0944484461975619 0 0 0
1313 1 39.38234702238323 3.5025960079671403 -0.10649402281962966 0 0 0
816 1 40.68489308503717 8.301291700433131 1.1613099486301985 -1 0 0
2043 1 36.60360631513564 10.981227153404351 3.954839732917809 -1 0 0
310 1 36.69229781165568 7.383585763521609 -0.0516241102612795 0 0 0
7092 1 39.79739222462226 6.019846669968853 0.8021194113983854 -1 1 1
977 1 36.70298134726735 10.096665525732252 1.2733817018963571 -1 0 0
960 1 35.92813568077566 10.84486992568075 80.16530313641235 0 0 -1
7735 1 38.60443445630833 8.508853786418832 3.1736862829044448 -1 0 1
928 1 38.2100971848161 8.952588953029272 6.053901835126556 -1 0 0
1394 1 35.596245166252714 6.6456001345362905 4.252159674678861 0 0 0
488 1 38.20343283037878 6.201665713246077 5.146459698169258 -1 0 0
1670 1 39.12829714248447 7.169368904919503 7.876744737101353 0 0 0
568 1 0.018855827398174485 4.384427154564742 1.035246843748368 0 0 0
1374 1 40.06947075612839 10.772045084663493 6.777093820994481 -1 0 0
1432 1 0.11504450022624702 11.799992518379693 3.679601461210611 1 0 0
7958 1 -0.7527232559549298 12.077666799446309 1.029920911696858 1 1 1
349 1 -1.6414486175853813 9.803621267057817 79.62737243416944 1 1 -1
998 1 7.12413216292277 15.972239624162839 5.268598104048086 1 0 0
6672 1 -0.014098071794835354 17.824833570319708 2.237854593609631 1 0 1
6124 1 0.8480431426888377 14.389565963215162 4.934902669165949 0 0 1
277 1 1.5697418568895691 15.28632937779772 80.92379800342452 1 0 -1
900 1 1.3078372726404637 13.443415295409688 1.9249154340687609 0 0 0
1376 1 4.321851437738859 13.771818119583072 2.43683812743377 0 0 0
7501 1 5.9927686545383505 15.366117938854636 1.028900659114725 1 0 1
199 1 41.896215896555404 13.288358556136657 81.1092842248325 0 0 -1
7380 1 -1.3791465998154016 13.882881918663264 2.6871005876062233 1 0 1
99 1 9.261655347920252 12.658357392794086 3.98893606073539 0 0 0
128 1 8.031648826381652 11.696030229717497 6.6826455619846366 0 0 0
972 1 9.968620943928407 10.167490205497003 5.706433914811737 0 0 0
7180 1 3.5260326373170834 12.228584519375358 4.381606337004347 0 1 1
6058 1 6.382396800370293 13.366323941899228 4.89673841964934 0 0 1
477 1 8.60653006452955 12.758787488320248 1.2237764468364667 1 0 0
1493 1 8.55011680559588 15.340207745655036 0.41013701588646456 0 0 0
2638 1 8.604420370707782 15.192440520256099 2.7748443788825288 1 0 0
1000 1 10.117412628580064 17.318582194291114 81.01557347936217 1 0 -1
1185 1 10.966100896057736 15.033408285952547 4.539669616272518 0 0 0
854 1 5.069617815726801 17.132759832503947 -0.44823308821040087 0 0 0
1375 1 8.140642259404563 18.097309118352285 0.53847843546367 0 0 0
7083 1 4.249791090689076 14.591503333143592 81.14714496225865 0 1 0
932 1 11.003582425177637 13.497142809548485 1.8315672207837093 0 0 0
942 1 15.288106462747137 14.162256825989347 81.00321615256904 0 0 -1
890 1 15.464620526484318 11.490092766768296 0.2756738304533154 0 0 0
7925 1 11.388885297001035 16.17223181553265 1.7537909846605455 0 0 1
1058 1 14.058275355269421 17.64959077659694 0.1938952776645344 0 0 0
70 1 13.400036135049879 14.008369886085344 3.7442016529587656 0 0 0
1895 1 19.564948340514803 13.47805485318353 3.5252522106315283 0 0 0
937 1 13.417483077967237 15.028551178783953 0.5460520956296202 0 0 0
849 1 16.342534538671885 15.036371472191195 1.4612455214886944 0 0 0
2307 1 13.938600085519624 16.597253769746043 2.8797913380430145 0 0 0
1821 1 14.073776989651057 14.926087813074304 6.226164709613499 0 0 0
1182 1 14.129851403846182 10.600862906548137 4.661279378865649 0 1 0
58 1 18.115486998844304 11.93534986972658 1.372111805773228 0 0 0
372 1 22.56282144658355 12.031689829768936 1.0260103338576412 0 1 0
509 1 21.7782006635846 10.867036410240937 2.8409423984183917 0 0 0
904 1 23.169312076947982 9.3277944796986 1.4057060268686572 0 0 0
402 1 22.60623624725022 16.13690129340945 0.8251415809402698 0 0 0
576 1 20.40002970631028 11.816028867859544 -0.4159698248482344 0 0 0
7248 1 18.319908953922102 16.004296690942237 3.2101029319856265 0 0 1
177 1 21.22390796858919 13.084536059886625 5.978849684214485 0 0 0
20 1 21.276443640794284 15.616989989956586 3.246875728795256 0 0 0
970 1 20.75429732888645 14.132009822813266 1.0309848171464053 0 0 0
202 1 19.065127705444013 15.908083259827315 0.5160972945344704 0 0 0
6632 1 22.728485039787177 12.548057778036267 80.67596896348763 1 0 0
792 1 23.40285774828586 17.21368453891716 4.212013104618469 0 1 0
6617 1 25.248286324605544 16.637468619655277 2.036355474673096 0 0 1
633 1 28.063356425867845 14.547176378600566 4.947334641055022 0 0 0
267 1 28.0772233316623 11.248307652099273 3.1592854802611043 0 0 0
552 1 29.876523352056125 13.14446404391071 5.964331967987673 0 0 0
694 1 24.71800691633431 13.618308132614365 0.8647704042064779 0 0 0
7652 1 25.552832265512198 14.194471354454134 3.658898926687434 0 0 1
617 1 28.599183870278246 16.134434189732513 2.5583097364920167 0 0 0
705 1 27.50892148856211 13.442348193902694 1.965789723792657 0 0 0
192 1 29.597754239320096 14.55589620950683 0.480472316405105 0 0 0
1429 1 25.22669376310736 15.98287973619102 5.971840717211986 0 0 0
1353 1 27.850302404166072 19.03542526822239 2.097502775812868 0 0 0
7544 1 30.367071686253077 12.338202713629254 81.26425195455593 0 0 0
1347 1 32.84010073124234 14.346575948095024 6.052653359695434 0 0 0
861 1 35.12957248073143 12.749510143018886 1.1395942014969431 0 0 0
7707 1 30.56141185330275 11.244899313918637 2.689899341509304 0 0 1
1785 1 32.896465747014865 11.494176624970207 5.351062276139129 0 0 0
581 1 31.761021084975468 13.541911509553707 1.0333054478976704 0 0 0
7283 1 34.49289903911035 13.124275991713235 3.8746600193288154 -1 0 1
1880 1 35.26683753466268 15.2635657260108 0.5968364524702687 0 0 0
194 1 37.25665315356846 13.745556580354501 4.015018831554757 0 0 0
622 1 30.335426095040148 14.01356403509103 3.3422917187412 0 0 0
1510 1 35.36090807404069 17.782589109805535 7.693932424997431 0 0 0
1080 1 31.45098270037535 16.21456850172798 4.597846610770332 0 0 0
6440 1 33.9219924352625 15.759374524091278 3.1205625472724634 0 -1 1
1834 1 31.9299981303462 15.852227739849468 -0.4873586748511029 0 0 0
951 1 40.44241227077608 12.626722608185386 1.1111786068300762 0 0 0
997 1 38.09173800702366 16.633938693676146 2.0379353307321044 0 0 0
1676 1 37.56104549836524 12.12094518640685 6.0421167348579905 0 0 0
1409 1 -1.6042399427619638 15.939044754131526 4.352770596014898 0 0 0
719 1 40.03231714139466 18.003706283193242 3.575945824345445 0 0 0
6968 1 40.981581953824026 15.301093199149832 0.35732116084559773 -1 0 1
6919 1 38.938283386732934 11.158697876926281 2.6294777068930455 0 0 1
542 1 39.95364201989344 14.85474169143512 2.752181200136462 0 0 0
7684 1 37.916354029813604 12.11881034897217 0.06492774023145198 -1 0 1
7432 1 36.87214694108491 16.355919032059024 4.080176029305897 0 0 1
2604 1 41.014411223552585 12.511524232174262 4.554143801417342 -1 0 0
7708 1 37.487148711095855 15.909941622734149 81.50903662009726 0 0 0
7803 1 39.10384775516187 18.301193685747013 80.69587201442563 -1 0 0
1393 1 -0.20577928109443255 18.24864473732921 81.43420478852899 1 0 -1
1033 1 2.8507350891845213 17.76361952367343 80.56692834043967 1 0 -1
7680 1 2.439385583738847 18.97864835618402 0.8937918913958489 1 0 1
7754 1 2.8094149651511975 15.754807437322118 0.9947721539511039 1 0 1
1076 1 2.7389722313250395 21.313252068920153 3.3731067263406995 1 0 0
641 1 3.643038372429201 21.886667906647926 5.755821645902548 0 0 0
7755 1 4.272100699313824 19.245513347850004 4.5564865419279075 1 0 1
990 1 1.3450361966289854 22.944112866477198 5.311899155587509 1 0 0
135 1 5.700905017377376 15.851694318987601 3.2492915932309545 0 0 0
7760 1 1.7147003780288408 18.768562933951035 4.455702633687868 1 0 1
1381 1 1.2249795174919331 23.408088081197025 2.4320987700007417 0 0 0
1746 1 42.084059654527714 23.83285752302632 4.174020888017628 0 0 0
616 1 6.966576575179163 19.28162149818196 3.1895802180576105 0 0 0
1013 1 9.130481068917652 17.75404673677446 4.510092822092255 0 0 0
1477 1 4.867896157315657 18.17432795373858 2.0909322497630867 1 0 0
1442 1 8.621579495342583 21.109966519478753 1.260293366262478 0 0 0
570 1 5.996327956291219 20.438825814601792 6.160316165887307 0 0 0
647 1 6.25527748193059 19.780712311219023 0.4951400234562613 0 0 0
1850 1 5.801183710469996 21.651298018456277 2.195622726680403 0 0 0
1504 1 10.492099196618023 18.423120199080618 2.80474176231202 0 0 0
1448 1 10.127392760170952 21.409635701861617 3.22577098510427 0 0 0
449 1 3.8884777786787703 21.41253161333815 0.8026506745603963 0 0 0
7614 1 10.579430104046143 19.64793314042127 6.328350262778703 0 -1 1
1925 1 8.306091509808107 20.596486797319578 4.97767213516286 0 0 0
6898 1 7.361748019251559 23.068181400974797 3.922001858830045 0 0 1
132 1 14.984427968059713 19.13514446341945 2.2060018030281308 0 0 0
2131 1 15.655438970276574 20.069478031114144 6.455767367618421 0 0 0
1453 1 17.24298060851122 20.23364805077991 4.295815560842157 0 0 0
1211 1 14.619365697983202 21.867122037929004 3.9584913773965784 0 -1 0
1057 1 16.851626822360956 17.702461348692083 4.524888093606924 0 0 0
974 1 18.12376557767232 21.572522415604357 6.561345278225759 0 0 0
1189 1 12.017222350724493 17.44797008193197 4.528455947610328 0 0 0
961 1 11.318280125887648 19.673992684927146 0.5208756040073919 0 0 0
216 1 15.773682216704653 22.416294315394577 1.7800967837814987 0 0 0
3059 1 12.60152729457443 20.139559942138103 3.7901299345755524 0 0 0
212 1 16.89665173044978 17.815960657555998 1.5454735406539037 0 0 0
7195 1 15.583117673239208 24.593421937580015 -0.0240937861611632 1 0 1
1052 1 13.372657153817824 20.85270495020819 1.0370450888547764 0 0 0
502 1 23.171837504847947 18.37512146860843 1.3825352750190403 0 0 0
215 1 22.972234704174515 20.518649710972344 2.6461265044861313 0 0 0
1491 1 18.62096050163102 22.221332639309527 1.4351411952141473 0 0 0
584 1 18.722081875270227 19.316557885874857 2.3728009393995784 0 0 0
6023 1 21.046968601762273 18.3470687170462 2.894235845319273 0 -1 1
249 1 20.72207553238872 20.384167892998168 0.8179209984255587 0 0 0
1832 1 19.267167738345144 21.090014457094803 80.35491987865079 0 0 -1
1548 1 19.791861314814902 21.208066256443537 4.367830274327276 0 0 0
1827 1 23.36811673904983 21.102434419545432 7.466464574492839 0 0 0
1378 1 18.322861520760654 18.988560100968364 -0.4613901985029717 0 0 0
1025 1 25.593222279634382 18.91145178813398 3.590300150509277 0 0 0
2582 1 25.239544758549197 19.962720303860948 0.7004068028751538 0 0 0
172 1 22.302262319820382 21.10363636825987 80.88053639407387 0 0 -1
532 1 26.987423337995835 15.845856926612413 0.055724571946199064 0 0 0
144 1 31.498413877892894 23.34116903564867 2.8490957781564568 0 0 0
308 1 30.136113258784466 18.624844764353526 3.9451141404654013 0 0 0
1019 1 27.998222244045834 20.7987911354367 0.33323704255988895 0 0 0
1103 1 31.426437650689053 16.840352997573067 2.006653066354151 0 0 0
658 1 25.98023601499401 24.719040622537435 2.2612577817778123 0 0 0
578 1 29.958870577049918 17.90287555936117 0.34372056827349773 0 0 0
654 1 29.372844194564973 21.441271389661225 2.8536333599083785 0 0 0
1549 1 26.225863333082142 22.034711995952463 2.757491306239681 0 0 0
1312 1 31.211767292468828 19.50274657857682 1.648905481026635 0 0 0
7443 1 34.114166918495975 17.286028357101426 5.363591630599625 -1 0 1
1036 1 33.37120362844709 21.133800241570622 0.741729635968035 0 0 0
392 1 31.846892694845295 18.39820713085017 6.704847425538565 0 0 0
7884 1 35.801616826431086 20.12375544377054 5.239529908271664 -1 0 1
748 1 35.51775001529381 20.903530547713988 2.4710174403139304 0 0 0
6836 1 33.75629418395942 18.170202648584404 1.252069784852284 0 -1 1
749 1 35.95876584086846 18.28552852186038 2.8780525342101333 0 0 0
745 1 29.954310755267887 23.212365844466447 5.841655064257742 0 0 0
1023 1 33.11079499808366 19.64021042054999 3.4742711893182703 0 0 0
7431 1 35.70927900600264 23.01621081174989 0.01689839602451515 0 0 1
1008 1 39.41378724636312 24.685876141782238 2.3593278670127757 -1 0 0
7324 1 -0.18162826147483413 21.320719280960073 3.887852540961674 0 0 1
6585 1 41.20393637303414 18.46559256981468 0.16339287675574943 0 0 1
1867 1 37.21180261114428 19.091571466504636 78.75728643077504 0 0 -1
1035 1 38.878226546051664 19.19318313700926 1.186316534487386 0 0 0
7789 1 36.65017860401562 18.116724849724314 0.5440172690807026 0 0 1
599 1 41.74550106353257 20.56190262735626 1.4823187703370717 0 0 0
7835 1 -1.2945797281473634 18.435191738662724 5.559451719772775 1 0 1
159 1 41.88600028265176 23.471517415601994 1.2254292754051936 0 0 0
3066 1 37.79194634730704 21.22939413377919 3.974972787752801 0 0 0
276 1 41.30384645936746 19.942818103511364 3.957832297521592 0 0 0
590 1 40.429279876941614 22.16138795555839 3.0127428992044716 0 0 0
2126 1 39.81412855296428 22.805546078645474 5.4110709014317635 -1 0 0
1009 1 0.6319447874216939 20.29172142574337 1.5972242676049566 0 0 0
966 1 4.0126044319636245 23.955764642671106 2.0401921441953106 0 0 0
1441 1 5.059101232432424 24.39404005762933 4.1185824562169655 0 0 0
1641 1 1.5481442460134067 28.615575694175824 4.130025505000743 0 0 0
1121 1 5.415531764407849 25.964328965158288 0.3324972231203801 0 0 0
7390 1 2.732119040843055 27.161862457353855 1.2237252521128164 1 0 1
1153 1 -1.2087286706077256 28.689337788975823 2.8049070911228307 1 0 0
755 1 0.2434506710743234 27.534280179309526 0.4303962620874806 1 0 0
1521 1 7.152338932530078 27.847423416672942 3.8941763381586068 0 0 0
1083 1 1.8760667075133277 24.527138050701687 0.04261184529244688 0 0 0
634 1 0.5646432970277107 26.10466509712144 2.6061011969355756 1 0 0
396 1 2.2598179572727175 28.334499910180142 78.96914278473186 1 0 -1
7936 1 9.736331156904022 24.286083946868136 3.653752127004106 0 0 1
1878 1 8.341930257124591 23.532521475915114 0.8144605447584186 1 0 0
1494 1 11.497292693280706 26.64312209266704 2.4980309124349547 0 0 0
6282 1 8.222724594950941 27.969544976597316 1.0725341995948936 0 0 1
1410 1 4.824460321547081 26.57310728321677 3.0069106053890624 0 0 0
3138 1 8.369251028341894 29.3734515842179 6.382267930750229 0 0 0
1450 1 9.620497371153386 31.878732056373337 0.31251072420054815 0 0 0
1531 1 10.229266109055915 29.923082360287843 2.411831580076813 0 0 0
815 1 9.825039857425493 27.429447486066763 7.4721664357847715 0 -1 0
2373 1 6.98711941697983 25.224251710075876 2.590446814984497 0 0 0
1294 1 8.46397794231057 25.769904838754968 6.301609404955846 0 0 0
7044 1 5.4237453275246885 28.580648503866897 0.7790816906109628 0 0 1
367 1 9.449832399512449 27.082501088113098 3.9547760986309735 0 0 0
416 1 12.767889038860552 23.897449692275245 2.8418771711603177 0 -1 0
1454 1 13.819756833327206 25.706255297858256 4.625768242636759 0 0 0
686 1 12.891416724297613 25.04463186440929 0.1097162057410852 0 0 0
1020 1 14.476349998018964 27.300373801044895 1.9119438752677804 0 0 0
1775 1 12.460579397067095 22.79196032111368 5.782270065837994 0 0 0
747 1 16.27764415131412 23.411666555213223 6.079524987590287 0 0 0
1133 1 16.467066437445283 25.12290696149971 2.525069173906524 0 0 0
7595 1 12.878006026453905 28.69350402502067 3.164516386436775 1 1 1
738 1 17.494927753760443 22.754472993756238 3.9320306049326996 0 0 0
1907 1 11.528058804126205 25.343471508888946 5.6431921110652254 0 0 0
1167 1 16.388106079785548 28.183731875971326 3.365032996758575 0 0 0
1578 1 11.188090593923237 28.529407841614113 5.89113305349643 0 0 0
7087 1 19.39959506543681 25.130243669822548 2.5514457474730183 0 0 1
1134 1 17.97294402101507 26.211865366366183 6.347951372812121 0 0 0
1183 1 20.6463270588998 22.688257486613292 2.7765445756292255 0 0 0
1099 1 16.276032993558214 27.849626755163378 -0.36966525820024493 0 0 0
1031 1 20.602407366263698 23.948970606698044 0.017011817367424187 0 0 0
739 1 21.740979781528413 24.818892805237464 3.2545669783428433 0 0 0
1094 1 19.122085424347304 24.142136029961357 78.90254235489968 0 0 -1
1899 1 22.284528501238203 27.720155499313588 3.4019839277558246 0 0 0
1342 1 19.43352390296417 23.783458285020735 5.262524207936864 0 0 0
7494 1 18.418786254793837 27.40297875751186 1.6509758056606318 0 0 1
7979 1 19.282045657307094 28.515834812019623 4.91395020882734 0 0 1
618 1 23.40462333766391 22.817123111273563 4.212446625647671 0 0 0
534 1 18.438091549369055 24.923579943647677 -0.2315143278559541 0 0 0
244 1 23.1640971262027 23.414236834216677 1.0868439466615971 -1 0 0
6258 1 30.453545748018733 22.857064786298675 0.3385023849232227 0 0 1
698 1 24.593633357497875 26.14303363331603 4.006783566207183 0 0 0
1078 1 26.666991970585887 25.989048817021477 0.11043985925779964 0 0 0
312 1 25.835485233549456 28.85912746778753 -0.3847357005264779 0 0 0
6195 1 25.758794258823805 22.82749420975073 0.6174504875723277 0 0 1
347 1 27.28387204217715 27.206887774679554 2.9942584456654955 0 0 0
2351 1 23.534269840016773 26.15058902660078 1.223663778774076 0 0 0
1348 1 28.45235224504666 23.67523793124899 1.4116713763374769 0 0 0
1200 1 24.733779616394212 28.8180102658009 2.548581972759987 0 0 0
7917 1 34.112914917474804 22.619351062883783 3.771838046030126 0 0 1
1909 1 29.212536788863982 25.05747186831184 3.745354861741755 0 0 0
1105 1 29.244123492848956 27.929566531777144 4.68398073388411 0 0 0
230 1 31.459985048211074 26.096907655040994 2.6746844642349896 0 0 0
1599 1 28.225995003129608 28.48008253829436 0.7461046206084803 0 0 0
184 1 35.82468682059632 26.0889456268902 5.773676279824278 0 0 0
663 1 32.950518662995925 23.966014915484195 0.6353810776534001 0 0 0
394 1 30.977418303817736 29.849450367023707 1.363189228203139 0 0 0
1590 1 34.05365055474975 25.615759403328664 2.9982105104648884 0 0 0
1114 1 33.36842194249337 30.88566253083073 2.586669472370392 0 0 0
314 1 37.47973721162088 26.614663958431354 1.161529341100653 0 0 0
1107 1 33.27806608050371 24.64042358515047 5.322139451373985 0 0 0
646 1 34.180890770503005 28.42596139636925 3.627218911849903 -1 0 0
1959 1 36.819906077564525 29.24558512476883 2.056239089010037 0 0 0
1044 1 34.65521757907739 27.536289627316776 1.3060869948377947 -1 0 0
605 1 39.266886288904445 24.02536399380758 -0.4004798174469646 -1 0 0
1483 1 40.41369071088346 27.700196076521003 3.6945017484080642 -1 0 0
999 1 42.03918998826463 25.806753217801617 -0.393340175442665 0 0 0
7592 1 41.80539944215641 26.41003022839911 2.028878818768331 0 0 1
1837 1 36.40684671598312 23.822360761032094 3.2773200347516624 0 0 0
371 1 41.51223977509733 28.54477630715345 0.24075334323520514 -1 0 0
674 1 37.23220372889757 26.585038884553303 3.4438044290803216 0 0 0
1999 1 39.23657934559694 28.757416159090088 1.2774179716926901 0 0 0
1638 1 36.41919013635749 29.391778709797485 4.428680937586472 0 -1 0
1830 1 -0.7942137251102551 23.503870221227995 6.719792214387085 1 0 0
7859 1 2.710545674706718 29.61326769273257 -0.4683811538465221 0 0 1
411 1 1.9715226950633613 30.251806874107313 1.7854822651196884 0 -1 0
1109 1 -0.3340303965807725 31.223098653063943 3.8398799970230106 1 0 0