LAMMPS data file via write_data, version 7 Feb 2024, timestep = 30000, units = metal

8000 atoms
1 atom types

-2.284569836301234 42.78456983630058 xlo xhi
-0.7252320158697678 41.22523201586934 ylo yhi
-0.5991490646404927 81.59914906464013 zlo zhi

Masses

1 26.982

Atoms # atomic

5968 1 0.2834637533032791 3.7398083634859223 0.18059252589236752 0 1 1
7912 1 42.21138803289588 1.129494565950651 3.1564507209665895 0 1 1
1519 1 0.9795008266879721 1.5672462791091202 0.4190846573161999 1 1 0
7601 1 3.0609935635550123 2.075300690324149 2.1109764822102637 0 0 1
1168 1 3.123535731554477 3.298531098100593 4.609373845499275 0 1 0
6638 1 -1.481312042423729 3.037936282723112 5.26904889479982 1 1 1
397 1 0.5682698943233664 6.450407193892696 81.01762874956074 1 1 -1
427 1 0.9160330826848959 8.291193807566506 4.760031613945764 1 0 0
349 1 1.0396738494261313 4.420916390346257 3.4582231149056577 1 1 0
1448 1 42.609044552112096 5.508416747968557 6.881387687408066 -1 1 0
1000 1 2.8697675483487997 6.381791660792568 3.7727817581999856 1 0 0
446 1 5.365234429414505 9.091981596370848 4.792345152573993 0 0 0
877 1 -0.5923901241720007 5.382831209463625 5.049123311952 1 0 0
7377 1 1.5416581263271736 1.7038201189210507 5.493878391613585 0 0 1
763 1 -0.016251678594324304 2.1424409140100162 3.0508901965782402 0 1 0
767 1 0.07949408657688783 40.99989313959753 81.16741242920438 0 0 -1
875 1 41.87700923589958 0.5762372929705359 81.22393408791388 0 0 -1
6816 1 9.803332842004671 6.771043995452085 6.70966970114963 0 0 1
135 1 8.432573376435329 3.5180713598287827 81.16229277679889 0 0 -1
5624 1 7.672644074597057 5.083770056087734 2.9976469238904926 0 0 1
878 1 7.714075530565816 1.5104931274529312 5.33719880490735 1 0 0
1133 1 6.022878846191633 -0.47227937123834696 3.498768846393988 0 1 0
572 1 7.085158930849543 1.7965473446165445 2.467929296952158 0 1 0
889 1 9.701625992750973 4.918269028107384 0.802890892024291 0 0 0
5201 1 4.438006809216696 -0.0923880547257262 0.9478574815624063 0 0 1
7993 1 9.21246743022655 1.0749022228037193 0.7887009396777305 1 1 1
1098 1 9.800745210730122 2.5123568886501455 3.492711429241984 0 1 0
841 1 4.972114765043003 3.9249018645089757 2.161927079366009 0 0 0
477 1 7.122927373699907 4.348034618824874 5.187161641805972 1 0 0
7491 1 9.216844162715914 0.29848018835676604 4.132914774871362 0 1 1
157 1 5.58846776445021 5.279226419205612 -0.16206098142107134 1 0 0
1212 1 12.844642718650292 3.1020164928901472 3.1975245671294963 0 0 0
7709 1 11.90568692497068 1.2802182674968359 1.4636426870792905 1 0 1
1084 1 11.89775896641534 -0.28181247509880913 5.201306106555872 0 1 0
334 1 16.298429410203074 8.094741465128019 4.783309714317932 0 1 0
2322 1 14.006838078653011 1.349999719934592 5.878990713130886 0 1 0
1202 1 11.212824069743487 3.3165048119839904 -0.2701293195747999 0 0 0
1606 1 13.851964732810199 4.877000712209866 1.3458470786838257 0 0 0
1201 1 16.016292631555316 2.7380135410475823 4.109341009023846 0 0 0
1560 1 13.71818245873089 5.045739060013688 4.0796925913989375 1 1 0
1176 1 17.241061306027035 4.727640453821925 -0.12906513474517134 0 1 0
845 1 16.232479646271052 2.3297490583155867 1.3639134270632922 0 0 0
1579 1 18.173503386823526 4.34882192379127 2.92099665806866 0 1 0
1970 1 14.012843654852428 0.5049252933858819 3.176297982702292 0 1 0
7673 1 14.435588115748736 0.33785729004008225 0.9132741561311248 1 0 1
5834 1 13.304148610041642 5.067623315757742 80.2301356185165 1 0 0
1977 1 18.614363305109883 2.2225452718260263 0.027236571207060245 0 1 0
1054 1 18.88223862633854 40.44558466782618 4.438912035952246 0 0 0
7979 1 16.2635477246739 5.101238367486355 2.27269230981915 0 1 1
416 1 19.08316645866559 6.896544982629102 0.36570365359158064 0 0 0
7506 1 20.929726621858453 40.76757717414513 2.7664666966142386 1 0 1
1183 1 23.110596876002962 0.15380884290679508 2.585125255087121 0 1 0
1259 1 20.94521600611086 6.928253887166944 2.4613536750149483 0 0 0
47 1 20.798596792659726 1.049961594579612 5.0173742918805075 0 0 0
785 1 20.57320661433396 3.2061932042224566 6.869000926711737 0 1 0
1219 1 20.101283633217683 4.356062816751492 1.1453290817294826 0 0 0
774 1 22.779067610361654 4.84647761392894 5.930216152716422 0 1 0
7254 1 20.72080496020783 6.4496498502824195 80.8299363573245 0 0 0
382 1 18.595984932579444 1.4584931074249043 2.8274408931304467 0 1 0
1028 1 20.576834236616172 4.201813825847153 3.9363012589331774 0 1 0
420 1 16.903887459039844 -0.05990258031070428 3.405818009010299 0 0 0
695 1 21.337967970924023 40.83109784677312 6.503515660537177 0 0 0
777 1 22.209431717726332 3.0018355179399085 2.743106363303159 0 1 0
1576 1 23.469143216960187 5.289098996690648 2.121768348165296 0 1 0
735 1 25.625961860504447 3.0566043246850674 2.3268792104234097 0 1 0
7678 1 29.288754179266537 1.9807895991649032 80.6510724631552 1 0 0
2333 1 27.21192877316986 2.6362158702742517 0.22342575693815825 0 1 0
7667 1 28.157629476946006 3.526503596204794 3.45044697301297 0 0 1
7152 1 25.60426818807041 3.3223604259782427 6.130790935952113 0 1 1
1625 1 23.074998245235218 2.0245767296894157 5.32339098535954 0 0 0
783 1 29.06263968712601 4.437974953423524 0.4976950641899025 0 1 0
97 1 25.450623319664246 5.525047751293159 3.9067739642142048 0 0 0
232 1 27.59929778339404 6.0470347730961285 2.378453380724962 0 0 0
1586 1 25.862077995207088 40.01248210193063 -0.2644463607286813 0 0 0
819 1 25.79133988240022 -0.1818199465444975 6.618890921517231 0 0 0
1192 1 27.838880603005656 0.7460590197142538 4.0076613182727945 0 1 0
516 1 28.205514258911826 -0.13090489302115393 -0.18947790788428137 0 0 0
6460 1 35.15842522569362 0.7033676925933707 2.6521499965272466 0 0 1
411 1 31.11471827987469 3.9016254599549542 3.723848077241408 0 0 0
6813 1 29.947670351511707 2.071519191962149 1.5751417897075424 0 0 1
316 1 35.63341371819945 2.1400400478705515 5.269261429762334 0 1 0
1149 1 33.32760685282737 3.0161735913110155 2.959628472071281 0 1 0
1661 1 31.404593722905208 3.7553735324926647 -0.26406488079275037 0 0 0
7205 1 32.87311522141427 1.802797867474807 5.860181573890363 -1 0 1
6101 1 34.59505703801476 3.5463439487545507 0.6360670472433678 0 0 1
7471 1 35.530173979008964 6.313359210290432 5.486264251138095 0 0 1
916 1 30.165558254708554 5.722445552079307 2.3354956834412004 0 0 0
7900 1 31.67528804896263 0.7830005822228587 2.61661591719029 0 1 1
589 1 39.162157251507224 1.0653281487799682 5.4749302114303156 0 1 0
1997 1 34.0558001800357 -0.2912106260846902 4.7954237492300935 0 1 0
7643 1 33.52261570743693 3.365174087418244 80.15530908219688 -1 0 0
7676 1 42.53486786311049 4.385831850500594 3.1747678001110153 0 0 1
6392 1 39.31189800276553 1.7295847517693108 0.7158631008641223 0 1 1
369 1 41.59217735553055 0.6040630112033591 5.467133672559825 -1 1 0
870 1 38.074117965488796 5.967331129770408 81.39060190368787 0 0 -1
1311 1 41.09278842662671 3.3611341445788456 6.302931003322366 0 0 0
7639 1 -1.9285800943101472 5.21163260672677 0.12058300535136912 1 0 1
1647 1 37.669102995075875 0.8979642991552466 3.4175358022594384 -1 0 0
911 1 37.25222784603808 3.4841592399765773 0.2883423053254438 0 0 0
7598 1 39.79005972575335 4.017434181419857 0.7064122624891542 0 1 1
439 1 40.38601635616634 2.8568130156023606 3.6971299882131934 0 0 0
88 1 40.18198471443006 -0.5230865610172777 2.25240853129093 -1 0 0
354 1 37.716432667700474 40.646483793919444 1.2622559138662872 0 0 0
1717 1 39.22781556783535 5.613286689287593 7.257805741121223 0 0 0
1279 1 36.699242389500014 3.681699424945867 3.1655491781462928 0 0 0
6757 1 42.36844555026292 2.6364638072109425 1.081998576890649 0 1 1
1165 1 1.4915295603196936 8.914544078255485 0.9690397942037292 0 1 0
1005 1 -1.437650739203042 9.089453426452694 5.813578601459674 0 0 0
6889 1 0.7993926812025056 12.209126541376122 6.325869832962159 0 0 1
1515 1 4.765954466156238 9.914123336480046 81.30334897027606 1 0 -1
340 1 2.861079314214315 10.699397605554408 5.415791230239484 0 1 0
6906 1 -0.7648797745838214 9.775434644953828 1.1279765567897886 1 0 1
7177 1 2.179059332641722 13.117504216875751 3.9040205734200812 0 1 1
956 1 -0.11197769917128708 11.155007413521703 3.559502781230793 1 0 0
7929 1 5.639830773128544 6.833109932282997 3.2292558470989046 0 1 1
921 1 2.0540360480062 11.614234096323225 1.6991434467846962 0 0 0
7792 1 4.124105361302257 9.760615206442619 3.0620373562466066 1 0 1
1231 1 -1.7081739829768214 11.86375664754595 5.570887032008018 1 0 0
520 1 -1.8596556081721394 13.479933304642516 3.2079914878020594 1 0 0
2113 1 -0.08678403340439234 15.096836799641842 5.20102788458846 1 0 0
883 1 1.3268127363519548 9.373904095219357 80.78227467267192 0 0 -1
7576 1 8.179308113936996 7.3844894246366035 4.601142461670101 0 1 1
1409 1 4.80337088132167 11.863829011278932 1.1684496953113408 0 0 0
7768 1 5.169685230547226 13.102381710632367 3.9028693374337964 0 0 1
6604 1 7.104881955095241 10.787976775306465 1.6485085672976165 0 1 1
965 1 7.231075250936051 8.059218196552974 0.73048132686094 0 0 0
780 1 9.812302308605767 9.526534650228914 4.002003588543637 0 1 0
486 1 6.7601642253326375 11.890766510331064 81.44340285252684 0 0 -1
136 1 9.930277547060248 10.014169848842917 1.527825668633891 0 0 0
5 1 8.927095552935862 9.331279518515831 80.71208742722024 0 0 -1
6488 1 5.620171015278663 11.736151256246817 6.123468664463904 0 0 1
448 1 7.546563710282912 10.990100791357518 4.346933465138289 0 0 0
2010 1 3.5518671476912838 13.473213158595515 6.712551756548928 0 0 0
43 1 7.348130008944196 9.594356478041107 6.6413476699190985 0 0 0
963 1 7.200742615164872 13.5151246651459 1.730793052194107 0 0 0
1217 1 12.208104490847852 9.699812598130725 3.3986545633397087 0 0 0
452 1 11.557820764175736 5.4106262120258535 2.901721084597863 0 0 0
7302 1 11.930592215939791 7.196480930264575 4.854372271353808 0 0 1
12 1 9.595064219909496 12.281841715072643 2.6735600886401483 0 0 0
1617 1 16.417767656691154 8.370576851842305 1.5831997649409781 0 0 0
511 1 14.694753168664839 9.989057604962198 3.284079831535231 0 0 0
13 1 13.775787709334764 12.584987178374805 3.0036134744802916 0 0 0
6856 1 14.476391161246156 7.318307401851438 2.914945867437473 0 0 1
6769 1 9.50931226362008 7.184145680625625 2.215119591631282 0 1 1
85 1 12.071552140871203 11.876351399328032 1.1082886134552608 0 0 0
804 1 13.52808819185542 9.81833782013852 0.48953610021888116 0 0 0
138 1 11.687321955590948 14.17785715742952 3.3352496170365935 0 0 0
216 1 16.174438179063973 11.28253879467032 1.4571589112878662 0 0 0
1170 1 10.55984292453208 11.94597637068013 5.549478723816912 0 1 0
7328 1 18.604086637911376 8.729559574387887 80.58993281824789 0 0 0
295 1 20.6402295533163 7.871548571918142 78.5442327042852 0 1 -1
1138 1 22.62833256869969 10.804335857986091 5.877925840930133 0 1 0
24 1 18.528730219484885 6.888631492445372 3.241063998044646 0 0 0
576 1 23.05430841566271 7.594847460327367 -0.4159839440997704 0 0 0
1381 1 22.67008643679693 10.190342988388437 1.2134776370611766 0 0 0
573 1 16.97152657335443 11.838686764984416 4.513865224797548 0 0 0
7385 1 19.275258519876157 9.270622947609194 2.0640842750123936 0 0 1
458 1 21.112707854134214 11.217357235744597 3.8328518326804435 0 0 0
462 1 20.81926215300894 9.00775792267677 5.898464765045328 0 0 0
583 1 18.49927184257738 12.231025681396497 2.2808707540669655 0 0 0
7910 1 23.036327014523277 9.256631553135978 79.6397819599666 0 0 0
1349 1 18.649153041479913 9.855410589984915 4.702255864038133 0 0 0
977 1 18.688718981618532 11.803932744089607 81.43224615786096 0 0 -1
6861 1 21.856809230945018 8.750731046715224 3.856778185759328 0 0 1
500 1 18.594021474371395 7.389973956282569 6.515308926989044 0 0 0
948 1 28.425603417738596 8.673340649647473 2.106385340816043 0 0 0
750 1 24.508676419147477 9.716670657824496 4.093183000126428 0 1 0
981 1 25.349305352335666 10.58327278998789 1.7782555222845655 0 0 0
1260 1 25.37639436839463 8.150020430106752 1.177443022681481 0 0 0
495 1 30.189356476630703 10.573079089497975 3.0103837615005316 0 0 0
1186 1 27.95858605512674 11.39511668253297 1.2654325870455658 0 1 0
6935 1 23.66132979129376 7.459978480022626 3.3987660838940448 0 0 1
806 1 24.039587023800365 12.614545502305445 4.413854085618231 0 0 0
947 1 26.551552905504163 7.858418010581424 4.162044635813109 0 0 0
1297 1 28.687305618646377 13.72498455299197 6.9619599408475095 0 0 0
249 1 30.46583051511246 14.222279702837195 5.084728293636905 0 0 0
1592 1 26.63531121178533 10.17222912653327 81.16721816299821 0 1 -1
1709 1 25.296681147277514 12.535220622402663 -0.30444699504401274 0 0 0
542 1 28.66446458744975 12.705349790431672 4.102634441333739 0 0 0
939 1 26.00736231897055 13.622031547331042 3.2103389557138593 0 0 0
7631 1 30.289578776202244 10.070805708954843 81.30756791698727 0 0 0
5951 1 31.49037864622284 8.06552263052518 2.5156633146108085 0 1 1
2593 1 36.553785005819904 8.348851690608742 81.58769829207068 0 0 -1
7785 1 33.515014269605345 8.612210846752367 -0.15161891724217796 0 0 1
469 1 35.449067544971484 11.192036087458805 3.46586815408938 0 0 0
6941 1 33.54827308637324 6.192241933995934 3.1061000436080928 0 0 1
1314 1 33.418004468415745 9.613120125842016 3.185771494527112 0 0 0
530 1 35.78365471606621 9.440014777865033 5.076329262467662 -1 0 0
7144 1 32.791569087715516 6.208155078126535 0.5912197683089537 0 1 1
7037 1 38.86546389463612 8.425577450403637 0.14952758548709988 0 0 1
62 1 35.09790488008585 8.174093453293702 2.3092629685706405 0 0 0
1585 1 32.00133618587455 10.62429481204344 1.142256299626755 0 1 0
986 1 34.90796368046222 11.011723032142081 0.570819361279679 0 0 0
174 1 37.363623622760386 12.029284448420885 81.39956144223939 0 0 -1
1786 1 29.575714146960266 8.303750575349893 4.685502336345439 0 0 0
513 1 30.590016788943462 6.650182950244033 -0.11309997467649385 0 0 0
7341 1 29.47207941857987 13.550298264702644 1.1937927501884211 0 0 1
558 1 36.14444926646996 5.735523722120119 1.8058229748807642 0 0 0
7235 1 0.2625134997543772 7.077706190348671 2.3918353832003043 1 0 1
7231 1 41.380324129481025 9.387043739069622 0.9468353479179401 0 0 1
1287 1 39.25633581187188 7.492417703199944 5.4152199811814725 -1 0 0
7190 1 42.15421318751331 6.869389420294413 2.5545392732061627 0 1 1
5749 1 42.343317783736865 9.502206270774982 3.6481682892535234 0 0 1
7848 1 40.176571447872675 5.3965597287003835 3.5731862411192843 -1 0 1
1361 1 41.932988468766865 7.20186652479865 5.106728647325354 -1 0 0
119 1 39.503345496177204 12.247280158528888 4.159297963305713 0 0 0
7608 1 39.14558266454716 11.405344030218169 1.1484377312673641 -1 0 1
112 1 37.02661572031788 9.976546001321736 1.4649888248840295 0 0 0
7885 1 38.49730326308122 14.424215559279531 0.45726632046534843 -1 0 1
7048 1 38.0464508885355 10.05652522249977 4.705784675695114 -1 1 1
51 1 39.82759620282927 8.425105309751766 3.0917965811294805 0 0 0
611 1 40.67609495623117 6.351461863278954 0.35574390180935755 -1 0 0
7178 1 -1.7247462154758035 12.799362513431317 0.4218332572015777 0 1 1
198 1 -0.10162471146229768 19.37499725496225 3.274922810523408 1 0 0
7712 1 0.4776743121437734 13.999807682895947 1.7465062229857256 1 0 1
936 1 2.080398622670404 13.18854272042522 -0.38024735309081925 0 0 0
1317 1 -1.257976792911743 16.059990631983037 2.970881942363858 1 0 0
677 1 2.61485171553013 18.788936782032728 4.237262610986803 1 0 0
248 1 -1.249010801737348 15.482202411599147 0.3955861937322217 0 0 0
7739 1 4.053588143566136 16.69851722281472 -0.24959889767732318 0 0 1
522 1 -0.3127870226355376 18.152132891446573 1.0077106243714744 0 0 0
1929 1 2.0228982045850668 16.144657769671124 0.9072612286154138 0 0 0
681 1 41.50217492227445 19.02209443498852 6.542840160037504 -1 0 0
3035 1 2.9566472196356193 21.707323400093387 3.667148353272247 1 0 0
7195 1 5.480224098513755 20.388073943181475 0.31674132801161425 1 0 1
6053 1 9.946602384607907 14.700360054519185 0.5574482703939723 0 0 1
1376 1 4.934845844155329 17.859427238304157 5.861838044174476 0 0 0
7969 1 7.626554280723811 16.360685744153912 1.7093017856886985 0 1 1
91 1 3.8175724205829713 14.361130341533597 2.037378589923156 0 0 0
994 1 7.322036453052032 19.09334659915824 1.8827874715287685 1 0 0
579 1 4.779774690843302 17.199481575701775 2.405919781878362 0 0 0
2173 1 7.985313364671592 19.84515346642648 81.04247475456 0 0 -1
1043 1 6.145546201108841 20.257434339424282 4.582910322986041 0 0 0
6950 1 9.9700609005618 20.258161430284275 1.5341786236041433 1 0 1
7801 1 10.476854092434772 17.35800205060397 2.2627213689695402 0 1 1
7268 1 7.426517294877314 17.791682718840633 5.056204713257574 0 0 1
1800 1 3.78467321112141 15.758805919896705 5.161624225015515 1 0 0
1290 1 6.4175483718958795 15.415340527106583 3.8218045584029356 0 0 0
48 1 9.741909722154398 17.703476885101665 8.054946477271244 0 0 0
98 1 9.113805503904715 14.964298457946084 2.9350560894599473 0 0 0
6841 1 14.682565487173587 13.025992674264035 -0.4770442654906081 0 0 1
5739 1 12.737565428391417 14.250772697457801 0.18650441409540042 0 0 1
7922 1 17.85991780336716 14.274374082920886 -0.16634786287323244 0 1 1
1181 1 12.643270377056341 16.163109897581094 1.8824948202558631 0 1 0
134 1 9.73504656919757 16.45598890420383 4.984825711401494 0 0 0
1258 1 16.1186208395572 13.743050486581568 1.7848899838175174 0 0 0
52 1 13.050521064625219 18.360938727064546 0.4359447379667849 0 0 0
997 1 12.315892951055838 19.143968285848924 2.903021859662711 0 0 0
259 1 11.958189289519009 21.836318402302894 0.4538285257904433 0 0 0
92 1 15.792555402319373 18.441119822197305 0.5624487760976904 0 0 0
564 1 9.530554174811448 19.105162485308714 3.988820723663773 0 0 0
526 1 14.984784346701456 19.40676532495601 3.3613168977334666 0 0 0
2604 1 12.308962207452435 16.94578213821254 4.6805390819724755 0 0 0
7652 1 14.884393035791117 14.919703687510697 80.26730008093602 0 0 0
1658 1 23.325256503728976 12.706364611165188 1.5454832708935786 0 0 0
49 1 15.404191752228428 14.534178836709303 5.212260128347977 0 0 0
1379 1 21.05916109537919 13.862210736837902 3.23251593571948 0 0 0
984 1 24.351641685669723 11.234757528812453 79.91227669736517 0 0 -1
537 1 18.557471780759705 14.541597134760702 4.849214298815056 0 0 0
1471 1 23.675147591627006 15.034954828091072 4.277031078466218 0 0 0
1074 1 18.888936740452007 15.78029866009069 2.695247348722795 0 0 0
933 1 16.777671679081323 17.167680969377372 3.173034074075316 0 0 0
1785 1 19.53649799944595 18.51454975339865 3.4901081951633337 0 0 0
267 1 22.126428335412918 17.713577602754487 4.17949853157542 0 0 0
1461 1 19.548725900328463 18.34485728779472 6.334507997173014 0 0 0
7460 1 17.76533792863515 16.93985459311912 81.55645609033482 0 0 0
7830 1 18.75140416053122 18.935039580572173 0.9165898292200956 0 0 1
7831 1 22.013774231992574 15.988902408500476 1.6555269331620863 0 0 1
1022 1 24.959710372990497 17.026372486231004 3.0500624552090536 0 0 0
587 1 26.959891571343785 14.928962017034149 1.0126259242749676 0 0 0
499 1 25.932334221116545 13.91096872954392 6.526844915768504 0 0 0
654 1 30.56869378858281 17.018637540787097 3.463281817367145 0 0 0
6417 1 28.2426024389375 15.250839671006313 3.5490347541068585 0 0 1
941 1 29.236056134043277 16.418555166468465 0.8630917044821806 0 0 0
707 1 26.549950528649884 20.954360707156624 4.363604871300301 0 0 0
7755 1 29.492914933190082 18.905838796223595 0.4024267308710443 0 0 1
7899 1 27.725337252007765 18.078294557106716 2.2151960963564856 0 0 1
1270 1 22.51213783320659 18.95580422337885 1.8626453683838635 0 0 0
101 1 27.51048853028698 20.994563277855136 1.0212535904234288 0 0 0
1064 1 22.65439146023632 17.87924250826473 81.0555195247236 0 0 -1
258 1 30.185797134749937 20.292466019529066 2.8822552840825595 0 0 0
1044 1 24.229870516351188 19.524504141611832 3.655937102236984 -1 0 0
111 1 32.168322058910334 13.380440468477108 6.797924657148667 0 0 0
1356 1 31.931400061018355 12.04069422687245 3.8911842223432 0 0 0
1312 1 31.707676466529318 15.02392338557992 2.4238067002875057 0 0 0
7440 1 37.028201511909316 16.077091535619747 1.6159015456870973 0 0 1
1484 1 35.35488888096218 15.127066909436925 3.602710897710261 -1 0 0
7708 1 34.004877450718425 16.57318910842012 1.575018292443203 0 0 1
132 1 33.94288590729616 13.406300586429904 2.405693032648136 -1 0 0
7475 1 29.179610328653546 15.996303893033527 6.0791162022717815 0 0 1
591 1 32.156384138757275 13.596900227178779 0.15031682353420095 0 0 0
538 1 30.04386217010809 17.50548488201773 80.06265832801276 0 0 -1
640 1 31.79565278413742 17.584038710337882 0.2750355913230902 0 0 0
873 1 32.49270196963465 19.04088901394457 2.8898672496686335 0 0 0
124 1 36.89206100294062 18.455335425621573 1.2965512931275696 -1 0 0
7258 1 34.131487166576576 19.261180570859885 0.6782476417546188 0 0 1
551 1 36.0764926176267 19.693998525264842 79.78330552574431 0 0 -1
1411 1 33.46442023667446 15.552592128393552 80.93579736460924 -1 0 -1
95 1 41.59445260275065 11.553126786214438 2.369950266261421 0 0 0
6127 1 36.87636635781743 13.030403865327413 2.5769230441046376 -1 0 1
277 1 38.381312570514666 17.44208184620498 81.29102834638863 0 0 -1
869 1 41.3549599417578 15.995042568671849 1.5596326992334184 0 0 0
278 1 42.513466234183625 18.735606297017917 2.7187295093849473 0 0 0
142 1 39.492785183138366 13.755361456450482 2.3564572819090377 0 0 0
103 1 41.189190449903066 16.83523592563487 4.670419502560553 0 0 0
350 1 37.51620380555394 17.674922853217275 4.308752568174363 0 0 0
1442 1 35.47610040152918 16.950208104229 81.19592478008133 -1 0 -1
483 1 41.22264059760752 14.079812684788928 5.290720333553474 -1 0 0
1746 1 38.93315893773129 15.488368419916462 4.463842375631399 0 0 0
7688 1 40.456400010587345 20.040364162427068 4.196387235733056 -1 0 1
552 1 35.39467345775374 13.926253780236957 0.4190160228619444 0 0 0
928 1 0.7032380453706333 26.6092281266964 1.9096409351604269 0 0 0
540 1 2.9003830028810347 24.281452824738285 5.0697835294645355 0 0 0
973 1 4.937604853653344 22.795006739445192 1.5170249493242922 0 0 0
118 1 -1.6838625193324277 24.367630417706007 1.6606882748700573 1 0 0
1439 1 -1.9318257955797975 21.504737874205905 3.579074391825782 1 0 0
1008 1 0.42698640388266274 22.91976895264768 2.945180167182786 0 0 0
1886 1 2.1106765088582167 29.527070926706866 81.5014812405339 0 0 -1
246 1 0.49996145374979406 28.46913222911574 3.7767038659593446 0 0 0
180 1 2.384183479352214 26.963239834165957 4.904093895713615 0 0 0
1443 1 -2.276880177517187 26.307637248879086 3.404528199227914 0 0 0
1486 1 4.742103620902708 26.21073315147464 3.1009319675671496 0 0 0
492 1 2.4677632836346772 22.243091353147864 81.25785214234389 0 0 -1
359 1 0.8704521711187572 21.317241716127636 4.987742100444673 1 0 0
2657 1 -0.06160230056468041 25.062206954764843 4.06969898355698 0 0 0
2123 1 5.17793736710974 23.00404805881925 4.234923619299957 0 0 0
238 1 1.323136081637894 20.833786765695912 1.4148002152861445 1 0 0
6564 1 2.6647633966193647 24.662650435821742 1.9337332438944528 0 0 1
155 1 -0.011905521209047087 26.69189077702956 80.3353568662294 1 0 -1
209 1 5.321023959763878 22.643390597774683 80.97694500054689 0 0 -1
580 1 10.319653226514705 21.716938149295675 80.45065864341473 0 0 -1
7239 1 9.690364472751158 23.645370759591053 0.48893935175222913 1 0 1
1410 1 3.917065540335061 19.36257452168133 2.1607404620572863 0 0 0
6654 1 9.016620204833083 20.981728535225898 5.591582995060611 0 0 1
7834 1 3.1405520849903024 27.54958265533283 1.356397886474059 1 0 1
7405 1 7.460795513753581 21.9956045156631 0.525684614978527 0 0 1
1517 1 8.144329292877702 21.62877078551664 2.949789728325734 1 0 0
6155 1 8.540394164259142 26.152816310612423 0.9835944810747674 1 0 1
840 1 4.44933570640168 28.212413111854403 5.48788933297323 1 -1 0
1641 1 5.2714746798391 25.43364836198626 5.8510873090548365 0 0 0
7849 1 6.854677145827573 24.04743919905944 1.771703046351187 0 0 1
200 1 5.626706648864977 25.911008552981134 0.5646869318518464 1 0 0
7876 1 14.17535382805309 21.196177139376143 5.5176843304641245 1 0 1
1016 1 10.544329657864008 22.288177600370595 3.269223368407662 0 0 0
1446 1 14.393121580806959 21.08613813271762 1.160741207900642 0 0 0
7730 1 11.566772609860992 20.815961070173774 5.09606378430074 0 0 1
975 1 13.175123878639958 22.730642137674522 3.439326188395647 0 0 0
127 1 14.449127085431442 24.31809135336895 -0.09907127364768686 0 0 0
1473 1 12.337668826104812 24.7310175201255 1.6269875019807656 0 0 0
1862 1 12.164004900070308 26.812377758825544 3.711668722516708 0 0 0
944 1 14.891641423006913 25.290444241995154 3.8289730048934 0 0 0
1061 1 13.720706117828382 27.283318275717598 1.2929215927037547 0 0 0
7733 1 9.273467937292098 24.75240307539066 2.862209912848867 0 0 1
100 1 11.81581500625713 24.41054000753604 5.038590552697262 0 0 0
2209 1 14.143482346605438 23.754190360504474 6.1127641905299175 0 0 0
1330 1 19.643081100762824 23.070064159904952 5.959853840726037 0 0 0
1867 1 16.346888869658514 22.608783995238102 81.5561329878395 0 0 -1
1094 1 11.1487216393432 27.39936576913914 0.8880089096041499 0 0 0
7736 1 16.20411923065723 23.413955509498116 1.9871576123196495 0 0 1
1819 1 19.376225149972143 22.566927642069423 81.22891389557233 0 0 -1
1069 1 21.422267081720154 20.61249645649466 4.394314479127474 0 0 0
7406 1 17.6719061596605 20.674458834986268 81.55242957552821 0 0 0
223 1 18.266169968014182 24.194303128678968 3.9512404990191694 0 0 0
570 1 20.184472548554112 20.829508680111594 1.5979675135613798 0 0 0
227 1 22.267617205556835 25.66057021806866 1.6122800108701 0 0 0
255 1 19.018797192782237 20.97302596294273 4.323572842932668 0 0 0
1855 1 21.700370052192916 20.760087316797126 -0.4693201476364238 0 0 0
224 1 19.852563734904567 26.397719878049305 2.7865846905797595 0 0 0
6495 1 22.25478645779481 22.892426589457834 1.3453201385598847 0 -1 1
1549 1 17.07426599999343 26.165373672574823 2.595962942744953 0 0 0
1472 1 25.0680465738989 22.87385739777359 -0.27053742462154984 0 0 0
330 1 23.336645257120043 29.909302178917404 81.3605014752792 0 0 -1
7807 1 21.52299565097081 24.53765379937828 81.47501260947334 0 0 0
108 1 24.058229073870486 20.97286379978855 1.0478574505080742 0 0 0
687 1 29.134137622988547 22.59448674570858 2.3961755165808687 -1 0 0
1167 1 25.13988962609067 19.839802587532787 81.15207629982265 -1 0 -1
1401 1 30.55798946566991 24.478359320050906 3.5249484076311015 -1 0 0
1503 1 31.652156286753833 21.213780398511712 0.36354020703615897 0 0 0
166 1 24.10444364810292 21.93909607538274 4.280424954627923 0 0 0
1863 1 29.634793306225202 22.055426478490077 4.941802981384193 0 0 0
7336 1 26.10660713293365 23.795050349871307 5.4731186439436526 0 0 1
757 1 28.10956531363044 24.93281987451054 3.6791346308480035 0 0 0
590 1 29.47906580582111 26.20683811700591 1.0753326508122987 0 0 0
1493 1 29.17521578710513 24.452954156306927 6.190784756585083 0 0 0
7404 1 32.35509859528477 24.798066753213835 1.0563688910150064 -1 0 1
264 1 26.350000098642997 22.96591380616879 2.86498605565327 0 0 0
7139 1 31.435709254126447 20.43651604253748 5.868080953828031 -1 1 1
1450 1 35.118001608848246 21.20279127409829 2.4651818270549453 -1 0 0
272 1 35.74016104096086 24.32917355754176 0.19520187762713315 0 0 0
7684 1 34.73814404191036 21.384425925664363 5.249540260736889 -1 0 1
556 1 34.009538040480194 23.055662497838533 1.604961491458988 0 0 0
821 1 38.07539647664072 23.13542181202086 2.0635919492246093 0 -1 0
1462 1 33.17961100100686 26.49509236515637 80.88670064059545 0 0 -1
1160 1 32.78671893515191 26.601588905652218 2.876070943755444 0 0 0
1498 1 35.07251969741141 25.383013195421697 2.54023180510742 0 0 0
1545 1 33.84547992917378 24.131611867097977 4.256396697033473 0 0 0
753 1 32.07140410670375 21.833101888311997 3.7305387645582426 0 0 0
2237 1 38.60804941439683 20.193495971816436 1.955491785229425 0 0 0
1528 1 41.71501556556797 20.629847674129074 1.141381419925433 -1 0 0
1778 1 39.048095144111784 22.687716857864405 4.592267167021264 -1 0 0
6829 1 41.3343323376193 23.856180400129137 4.649590369365581 0 0 1
689 1 41.57489664996314 22.669345288289467 81.31916303095156 -1 0 -1
1375 1 41.3627059758055 29.61140041490372 0.1181164327684242 -1 0 0
130 1 38.78148802228009 25.058283546574764 7.007399287931363 -1 0 0
1958 1 39.89945838331931 27.043216339301114 -0.29087043738249174 0 0 0
319 1 37.72095819184561 25.294625072584203 4.38096557619108 0 0 0
276 1 -1.7307933030740479 25.693335160230895 6.515732102610544 1 0 0
6195 1 37.24489714307289 20.644418850134546 4.6270452996189455 0 0 1
7221 1 36.35112524507102 25.922619695629066 6.776843444516384 0 0 1
1089 1 -1.004356718754594 21.984299189789727 0.3742240255299908 0 0 0
1397 1 41.0311935496307 22.517782193215837 2.5950846205239926 0 0 0
602 1 39.38983329717007 17.540815126475856 2.416565583861496 -1 0 0
625 1 39.31533853058356 23.857458490586016 0.0425401306307025 0 0 0
1485 1 -1.5254144087683752 28.320520290678903 2.178289832462955 0 0 0
1761 1 0.9267853464193778 30.144414883693518 2.02631701064968 0 0 0
7759 1 4.881600010992726 30.936463366785276 5.144402639976014 1 -1 1
1550 1 42.38849310960228 26.574578602000056 0.5740298693680699 0 0 0
732 1 5.344121506384237 27.64040127074972 80.50379707879299 0 0 -1
1021 1 4.120193118838503 30.40233472963416 1.0027258746750751 0 0 0
1924 1 -0.9430291822395096 28.275532694399054 0.001207098374327753 0 0 0
924 1 2.3517716143318417 32.35504573363002 0.11402805164242669 0 0 0
6749 1 -1.5500820041446612 31.148278323543902 0.5165530998762349 1 0 1
1998 1 4.159388769522528 34.060953724276075 1.1289114872746067 1 0 0
604 1 42.77676210260237 30.440248001202708 4.075122875002557 -1 0 0
575 1 39.96805209313628 28.659805206668228 2.763895899267618 -1 0 0
1118 1 2.7117660830957107 31.88173568407718 2.8486638914782665 1 0 0
801 1 -0.23597828844311364 32.57533083815481 2.7026406066238313 0 -1 0
1751 1 4.6419704019948105 34.062358311057295 3.9411082789739105 1 -1 0
6530 1 0.10431746542112474 31.37373010979918 80.55845663398648 0 0 0
7637 1 -0.6305511003851001 33.91630836792041 0.04196439141201669 1 0 1
1455 1 3.0807907632910956 29.47019847553391 3.6790123462011994 0 0 0
650 1 9.37867661301379 25.422382744862183 5.654611213836799 0 0 0
1082 1 8.89105595133708 30.778175054927274 2.6831520181227706 0 0 0
736 1 7.551333971026379 27.00255738563364 3.604638148782807 0 0 0
39 1 10.322768849670497 32.04465438830832 4.780658034496124 1 -1 0