LAMMPS data file via write_data, version 7 Feb 2024, timestep = 20001, units = metal

8000 atoms
1 atom types

-0.3171772480321202 40.8171772480314 xlo xhi
-0.3171772480321202 40.8171772480314 ylo yhi
-0.6343544960642404 81.6343544960628 zlo zhi

Masses

1 26.982

Atoms # atomic

8 1 3.6664979398788953 1.823927566789914 1.335905545019036 0 0 0
43 1 1.5856496315413613 3.700917185040997 1.5173739612742083 0 0 0
47 1 5.7840492659047715 3.807721980782584 1.4559458089748665 0 0 0
48 1 3.8809151399515995 5.931152368216247 1.4279532483931856 0 0 0
402 1 1.6821237087561132 1.6232522403979552 3.554184552114573 0 0 0
406 1 6.017057038779121 1.92877720136295 3.449821764441186 0 0 0
408 1 3.9261180930629758 1.8384921234087948 5.578598056110661 0 0 0
442 1 1.775117349405757 5.9208609948323305 3.326349250701127 0 0 0
445 1 3.879082676818018 3.658881273946118 3.450356820868633 0 0 0
446 1 6.215381549861719 5.780593259071422 3.511420441632831 0 0 0
448 1 3.7188806310789877 5.881983006796292 5.574113182124754 0 0 0
3 1 1.6654170505677708 -0.09085836489055069 1.435802386715388 0 0 0
42 1 1.732315088025501 5.839772174724689 -0.5495288648471615 0 0 0
7 1 5.857408570643031 -0.25128806594619163 1.4038902467130727 0 0 0
404 1 -0.2236933789978508 1.7682267423691456 5.614892403074653 0 0 0
45 1 3.554623313117499 3.89451233612332 81.56608060834293 0 0 -1
46 1 5.83851011343579 5.697848292254516 81.53331799881013 0 0 -1
441 1 -0.2957739873884293 3.90544066744304 3.3382190817984543 0 0 0
44 1 40.73509285383911 5.965969509017679 1.4388922809949354 -1 0 0
4 1 -0.26302734648220844 1.8488924791327292 1.4329315299885317 0 0 0
403 1 1.7345455441158402 -0.2552053450403804 5.702340250782269 0 0 0
6 1 5.983606074880041 1.893632799233369 81.61233370194549 0 0 -1
12 1 8.034039533164009 1.803354522758129 1.4927240422015973 0 0 0
16 1 12.195600025484515 1.8678333932752151 1.5105392099706552 0 0 0
51 1 9.957066172201694 3.8128260738946764 1.5664521080964158 0 0 0
52 1 7.927607265456524 5.895552164182951 1.3566831690790875 0 0 0
56 1 11.97850357595214 5.82606824295309 1.4420017915058545 0 0 0
410 1 9.835899117536846 1.7316493368732768 3.5972029058898745 0 0 0
449 1 7.965106165110612 3.756486210080661 3.509560266303322 0 0 0
450 1 9.843339005027172 5.858528652923657 3.4711580571592835 0 0 0
453 1 12.022883122573292 3.880205729761067 3.6535363547807966 0 0 0
456 1 12.025787641345282 5.893715500466491 5.669115169737705 0 0 0
412 1 7.68865502817639 1.7203774476000446 5.402283728223837 0 0 0
452 1 7.979920541752643 5.582862267975745 5.888392089193438 0 0 0
451 1 10.051372389046628 3.878130007298539 5.6504177461408585 0 0 0
413 1 12.101464100735871 -0.22620826349331935 3.66428950952991 0 0 0
416 1 12.03459722203839 1.8128829897637866 5.618474048380976 0 0 0
11 1 9.966399723737112 -0.21536687063914428 1.5351146215919211 0 0 0
9 1 7.737278588062397 40.77253046526867 81.61199181097786 0 -1 -1
411 1 9.846334456644614 40.81231498126088 5.8025185108975075 0 -1 0
20 1 16.176025133880145 1.5937200196825385 1.6631845159921919 0 0 0
55 1 14.134884180343695 3.772075095292614 1.4792735217303168 0 0 0
59 1 18.366005718059718 3.7132099250293074 1.555959930744328 0 0 0
60 1 16.18630540307006 5.723732868109073 1.3656526643179658 0 0 0
414 1 14.059745181316853 1.9237828094592606 3.713791962107792 0 0 0
418 1 18.097419869217642 1.5361325077345096 3.7810620608656125 0 0 0
454 1 14.000340370335776 6.038236895252951 3.474728094889409 0 0 0
457 1 16.172446643487216 3.739844034967212 3.634704357376819 0 0 0
458 1 18.05839329503282 5.731860270586496 3.860798134959073 0 0 0
460 1 15.965062084638149 5.769823258591621 5.570941174100181 0 0 0
420 1 16.049091325210696 1.768042121574711 5.871975803069441 0 0 0
455 1 13.94620392345733 3.9735804781393886 5.688187563351553 0 0 0
15 1 14.034000298606896 -0.043798187390308385 1.5200325053189818 0 0 0
19 1 17.968320707274376 40.59032509675984 1.7750666941295719 0 -1 0
58 1 18.326700289034108 5.756660192761047 -0.5987376596830529 0 0 0
24 1 20.205575003807457 1.2439608590959663 1.6269488853473186 0 0 0
415 1 14.000578889906954 -0.2314462627129305 5.634364822290145 0 0 0
461 1 20.142660058774325 3.516840866060498 3.5245264210525162 0 0 0
417 1 15.99974851884879 40.566746786545636 3.579239464352872 0 -1 0
424 1 20.263694418670127 1.6399413454162002 5.6596900379635535 0 0 0
64 1 20.153483414574048 5.563880990480613 1.5945023017731708 0 0 0
464 1 20.318358573368293 5.992811824347597 5.550627697618336 0 0 0
28 1 24.34029390579343 1.8658656756379441 1.1870300314193556 0 0 0
63 1 22.191480793919624 3.6930178679122427 1.3136810410987705 0 0 0
67 1 26.499900598428617 3.7500050432227 1.4583250304806286 0 0 0
68 1 24.382820059709147 5.9073001457902805 1.3377032898129344 0 0 0
422 1 22.268691483089288 1.7267294228077295 3.821555088616246 0 0 0
426 1 26.198379881429364 1.675679094629773 3.7757012394862164 0 0 0
428 1 24.50974220547494 1.5503413190832553 5.678895381068484 0 0 0
462 1 22.133685640834745 5.4589844219004915 3.5217582295657905 0 0 0
465 1 24.273616848758106 3.885217660509862 3.4577966130775 0 0 0
466 1 26.50745306152025 5.749541287627629 3.6161885704829144 0 0 0
467 1 26.246432623493053 3.774817602281182 5.596362502352543 0 0 0
27 1 26.47663398546213 -0.1717383241688566 1.7362022469196914 0 0 0
463 1 22.16965667277211 3.7525363510386747 5.672470214842366 0 0 0
421 1 20.367906565766134 40.52155371431127 3.6000765667367354 0 -1 0
62 1 22.161230726459124 5.715172273685142 81.61968980117987 0 0 -1
423 1 22.430912250394552 40.74350811813811 5.628327835110963 0 -1 0
468 1 24.240625889971476 5.740727910708414 5.5051492548144765 0 0 0
25 1 24.549163986717573 -0.22579758456411392 81.369889587411 0 0 -1
32 1 28.372635998556568 1.7639473198976625 1.5555378390682026 0 0 0
36 1 32.64965030234295 1.844877686016837 1.2173457662587972 0 0 0
71 1 30.580006116039932 3.7555943880348446 1.3954427322202942 0 0 0
72 1 28.38832164013746 5.876800027492051 1.4354923604271592 0 0 0
76 1 32.545024612458334 5.736477547633701 1.445947647418072 0 0 0
430 1 30.497675840727084 1.6839558717223326 3.2940437109890146 0 0 0
432 1 28.63176938804058 2.1098423225392517 5.601788602553226 0 0 0
436 1 32.54996563170309 1.6377165747153652 5.649445955716737 0 0 0
469 1 28.323127334564827 3.855318435987991 3.369813023870843 0 0 0
470 1 30.63269259935934 5.8263207305631735 3.4741710438382327 0 0 0
471 1 30.721158629877273 3.896072221452318 5.483548868830662 0 0 0
473 1 32.79953201515224 3.6806747306467127 3.5024170841907223 0 0 0
476 1 32.509606782955515 5.932404072247056 5.467786221662524 0 0 0
472 1 28.539811806602447 5.675799479742286 5.408166413225081 0 0 0
429 1 28.520567638963904 -0.21388044249958682 3.557891538961849 0 0 0
69 1 28.45178618638437 3.738762321951807 81.45592501707549 0 0 -1
30 1 30.392321574309957 1.705267628565315 81.58409779108881 0 0 -1
40 1 36.94254785189703 1.8669819483260852 1.3133882469292733 0 0 0
75 1 34.59074064332708 3.6970856025945693 1.4961667536218366 0 0 0
79 1 38.88459258615755 3.8804468136672394 1.2816532699139662 0 0 0
80 1 36.86228850133345 5.740612036646043 1.4193851914205693 0 0 0
434 1 34.81291521044426 1.8060806057315841 3.6576942037970888 0 0 0
438 1 38.91304592977802 1.9103013463803298 3.3383295671251565 0 0 0
474 1 34.63365250224089 5.8011993782155304 3.607026219277804 0 0 0
475 1 34.71161450613171 3.8481976163225253 5.511742661704684 0 0 0
477 1 36.643585631016904 3.865039738067085 3.622226137093124 0 0 0
478 1 38.69816013537877 5.78449662116425 3.603271752324755 0 0 0
440 1 36.64923007794876 1.765694315593648 5.54331707759185 0 0 0
444 1 -0.18335043119952463 5.752532660591486 5.419635817412063 0 0 0
78 1 38.71376197026213 6.0785288519885805 81.5723436655274 0 0 -1
437 1 36.82045799040414 40.81615207946924 3.1414062117796018 0 -1 0
480 1 36.67378819712306 5.861909974313639 5.755043810908769 0 0 0
77 1 36.556717420928024 4.081122739532248 81.616323687194 0 0 -1
35 1 34.674633981429864 -0.1457152554952267 1.3189212691207133 0 0 0
38 1 38.80907576040927 1.654476991072929 81.58753382833882 0 0 -1
83 1 1.8073282664479358 7.833762897349727 1.0642541158181658 0 0 0
87 1 6.124823140942689 8.019210893616515 1.5563821381279754 0 0 0
88 1 3.882354455047082 9.870580743854452 1.460358058121535 0 0 0
123 1 1.5916344042809003 12.0793225479707 1.4728218363405947 0 0 0
127 1 5.773406606005573 11.925308482862956 1.414137763705928 0 0 0
482 1 1.920656765614566 9.997816045973096 3.5758903094895507 0 0 0
485 1 3.8313700638373183 8.0948490199008 3.4357122978981405 0 0 0
486 1 5.856800218938544 9.941605825147263 3.537884754202345 0 0 0
523 1 1.7450525029419799 12.224308548060327 5.564755555220059 0 0 0
525 1 3.632741807714677 11.96277814737579 3.5979985643343246 0 0 0
488 1 3.9696504710525966 10.156641725530859 5.648128298630928 0 0 0
527 1 5.937437522079593 11.955073214946403 5.496721760065337 0 0 0
85 1 4.1643778793631805 7.8676620269226945 -0.5946547234279365 0 0 0
125 1 3.6156670312087917 12.06988132841022 -0.4792704296737327 0 0 0
521 1 -0.15685811542306283 12.234336540331354 3.4130427715632896 0 0 0
487 1 5.69500500310189 7.82399718286524 5.489672061774141 0 0 0
483 1 1.6468458424422059 8.0345060123273 5.4772847521296475 0 0 0
484 1 -0.26021682798288737 10.211477667722255 5.463127300971646 0 0 0
82 1 1.720639972507731 10.045894248762222 81.58996559012368 0 0 -1
121 1 -0.28337887223072755 12.075501579113334 81.59852960167092 0 0 -1
91 1 9.99601293508676 8.003018997566862 1.574439642128183 0 0 0
92 1 8.058931461954268 10.051227456548913 1.459500108603709 0 0 0
96 1 12.024017700102494 10.10817116584158 1.5386227863002087 0 0 0
131 1 10.0699299959426 12.11263030967866 1.724285282882089 0 0 0
489 1 7.975423082859466 7.891433230248877 3.8318598358236216 0 0 0
490 1 9.902569535443023 9.834178985602692 3.6198079483922987 0 0 0
492 1 7.876811560402565 10.171718925338507 5.651696425165665 0 0 0
493 1 12.036204417389786 7.93717622580861 3.5758557384711933 0 0 0
529 1 7.882540186158456 11.96192899359812 3.469503841857658 0 0 0
533 1 11.986856918864659 12.118372213449623 3.534346049170563 0 0 0
496 1 11.883775392336831 10.039035884010868 5.481384237923522 0 0 0
89 1 8.050580999802957 8.243845767880941 81.35210647224181 0 0 -1
531 1 10.009546064017021 12.348456339068235 5.6245684263303435 0 0 0
491 1 9.930643000042002 7.907304684472617 5.5842389268001 0 0 0
133 1 11.946550038284462 11.847778144443572 81.63003678999357 0 0 -1
95 1 14.122089416520293 8.136593278428021 1.5487971895240973 0 0 0
99 1 18.17796297430718 7.778252121996729 1.5913660812567665 0 0 0
100 1 16.19706740859226 10.241863789896088 1.6972204054934088 0 0 0
135 1 14.147749216532148 12.119273525910918 1.555438936677978 0 0 0
139 1 18.3078619511972 12.09242254861353 1.6437805343566474 0 0 0
494 1 13.934623359442707 10.135996245573077 3.5197146414307356 0 0 0
495 1 13.989296441739212 8.011243690263415 5.4843101763354865 0 0 0
497 1 16.18255495473041 7.866424378723927 3.4439657212572756 0 0 0
498 1 18.365576462489667 10.031575229410882 3.532676082286857 0 0 0
537 1 16.032885050286783 11.974286708872407 3.725088422228577 0 0 0
539 1 18.213080603798307 12.021037918830599 5.560898490641989 0 0 0
499 1 18.136836326406492 7.9570527552099755 5.688537461265987 0 0 0
500 1 16.017292932984994 9.923598985477335 5.502046421543724 0 0 0
98 1 18.157556977768355 9.76091542853803 -0.32986710679795256 0 0 0
501 1 19.937692110269722 7.78666592928826 3.6619698264230314 0 0 0
101 1 20.221252445924886 7.660825832426036 -0.5303148446892578 0 0 0
504 1 20.445686479454597 9.953139141920921 5.878626252818099 0 0 0
104 1 20.298254401114853 9.787470991358601 1.479532727930963 0 0 0
541 1 20.417191001057624 11.803818914844793 3.529797324099513 0 0 0
103 1 22.137129723250627 7.70664459481212 1.5273040432114295 0 0 0
107 1 26.463483273862064 7.601784193011219 1.6479479957145688 0 0 0
108 1 24.453865636769493 9.713857532090216 1.727122613065069 0 0 0
143 1 22.144271509793445 11.79722329785046 1.5292901333454885 0 0 0
147 1 26.39905003993684 11.781955677258464 1.4617685237509517 0 0 0
502 1 22.354669463529028 9.784970024082487 3.575174361065356 0 0 0
505 1 24.43654859579826 7.718905950027398 3.4439033626848685 0 0 0
506 1 26.483512138981247 9.96174942365907 3.562193208906373 0 0 0
545 1 24.278090710921454 11.981424631328917 3.447350944426381 0 0 0
543 1 22.293460530185232 12.01461096009072 5.6757559330500555 0 0 0
102 1 22.468477134457867 9.920442879576331 -0.41326975505501196 0 0 0
508 1 24.421803569530518 10.007624229434256 5.44249510850584 0 0 0
111 1 30.542351379844412 7.879088649545462 1.3730750421558295 0 0 0
112 1 28.475331362555373 9.774255726539131 1.4307757396728698 0 0 0
116 1 32.56783441946416 9.879676598262838 1.318247272932259 0 0 0
151 1 30.584198600899956 11.866976846701442 1.2776870162983114 0 0 0
509 1 28.380548833519043 7.804134001117314 3.6945757441824973 0 0 0
510 1 30.431475816671345 9.943817224654921 3.495515799235272 0 0 0
511 1 30.765316032724442 7.941798333084906 5.418311057979526 0 0 0
512 1 28.37361374478068 10.174061435292103 5.5711709178196545 0 0 0
513 1 32.78151420531286 7.974877327255836 3.5200855551818133 0 0 0
516 1 32.74953576495872 10.02736827993697 5.410003982949984 0 0 0
549 1 28.537964719336326 11.739286070965967 3.288244018906386 0 0 0
551 1 30.491189600579236 11.867486027557872 5.421080724026931 0 0 0
553 1 32.59307250970143 11.98629827784731 3.2080725764415585 0 0 0
109 1 28.50746098190244 8.003636552597403 81.55992197151201 0 0 -1
149 1 28.58196909970155 11.931546337520034 81.52028090282414 0 0 -1
481 1 40.77563869827555 8.002093281211184 3.4836728305120923 -1 0 0
84 1 -0.20450567540689302 9.868102737380001 1.37191589776429 0 0 0
115 1 34.60515818109059 7.781960740117377 1.4516657137650548 0 0 0
119 1 38.57351647533565 7.766817751035489 1.5509201025838149 0 0 0
120 1 36.58917420781384 9.945538603578557 1.5969841381348617 0 0 0
155 1 34.599175657281066 12.091658375124455 1.247600387175067 0 0 0
159 1 38.93413598835089 12.032138493264059 1.4929030016950242 0 0 0
514 1 34.58524533531909 10.104859546856456 3.289781577862567 0 0 0
515 1 34.749037320146385 7.830768630495442 5.51573940455331 0 0 0
517 1 36.83140416367476 7.8595642201921905 3.5048105306883306 0 0 0
518 1 38.82072828736261 10.072393321706427 3.5157189749036597 0 0 0
520 1 36.614234061872025 9.709769436470058 5.536973967855121 0 0 0
557 1 36.71599219644776 11.938221989551838 3.526834916755253 0 0 0
559 1 38.60160702378219 12.119066433617292 5.444830437682971 0 0 0
519 1 38.944030677078544 8.196847279616184 5.515887253215448 0 0 0
555 1 34.77193776568994 12.012470755913736 5.462010978947998 0 0 0
117 1 36.48100196484452 7.934875577806203 -0.47257504015036034 0 0 0
128 1 3.941400845482762 14.208344871265146 1.5447198148141812 0 0 0
163 1 1.8057451146092656 16.31226878721234 1.328913621488258 0 0 0
167 1 5.799872572927913 16.13713383562335 1.2947600779130697 0 0 0
168 1 4.07396452675596 18.27070292629284 1.5838665830644936 0 0 0
522 1 1.7312546566365117 14.212276227626141 3.421579543375416 0 0 0
526 1 5.765732004629169 14.082304294242377 3.588763409343005 0 0 0
562 1 1.8046954793432581 18.203959152807045 3.6480266918144375 0 0 0
565 1 3.8284217415674124 16.274287810306358 3.4367307220685106 0 0 0
566 1 5.786635901128623 18.254755262338414 3.713099413023799 0 0 0
567 1 5.85277953875444 15.963016703257168 5.557701339356169 0 0 0
568 1 3.9450687585843003 18.10928890152548 5.67433382324098 0 0 0
563 1 1.6321690557572273 16.124971336158445 5.5073590916498825 0 0 0
126 1 5.79441013634627 14.033035569134878 -0.5477315480844993 0 0 0
124 1 -0.2371335787273503 14.317745421311685 1.306271740141192 0 0 0
528 1 3.839957460862811 14.235219237649195 5.487475292750157 0 0 0
166 1 5.996572071506804 18.23513682705495 81.43803566008367 0 0 -1
524 1 -0.3035438891169609 14.276868873096575 5.222097050470934 0 0 0
601 1 40.70830763412606 20.10742877159088 3.742897058483398 -1 0 0
605 1 3.592068399799661 20.23740307617598 3.653948926843878 0 0 0
603 1 1.8411000085383837 20.053315592089287 5.669964437241924 0 0 0
607 1 5.840799247814653 20.344843470977047 5.542432230134118 0 0 0
132 1 7.7057750622940535 14.07260963150127 1.4644665741508698 0 0 0
136 1 12.068609991295936 14.141121512750699 1.4457860528737307 0 0 0
171 1 10.036076603409656 16.15674056507861 1.4400257287493412 0 0 0
172 1 7.887854134763421 18.12470240137397 1.4978762624460908 0 0 0
176 1 11.954281477964738 18.147401497713634 1.5310363831913896 0 0 0
530 1 9.818501584143958 14.16000691916166 3.625779143490811 0 0 0
532 1 7.927053264828578 14.235567345152077 5.554453442609579 0 0 0
569 1 7.6970242366821715 16.099915563660954 3.4335677238614943 0 0 0
570 1 10.082247998991472 18.061398791368735 3.4394402995660185 0 0 0
571 1 10.046951367013882 16.169621555940342 5.655381939532313 0 0 0
572 1 7.846604474396511 18.129731305573426 5.639647817466921 0 0 0
573 1 12.055844345301882 16.18840883396502 3.494920077173208 0 0 0
576 1 12.14724856622919 18.0868710029732 5.4863508521772175 0 0 0
536 1 12.242587714145902 14.283287524066926 5.563361424003514 0 0 0
211 1 10.11133501076639 20.284709831426852 1.5156969746304316 0 0 0
611 1 10.157101190229453 20.125588144160236 5.4900772767253905 0 0 0
130 1 9.952072451595175 14.046845648086208 -0.4230427753064987 0 0 0
613 1 12.227364132214927 20.103630547637522 3.451140633293848 0 0 0
173 1 12.022240015719929 16.250714544991958 81.60041693571054 0 0 -1
140 1 16.200850917345193 14.03111993321564 1.2617028562457215 0 0 0
175 1 14.240412739283585 16.106680799765968 1.165015795294948 0 0 0
179 1 18.346843121389483 16.199380712771248 1.3564326612770634 0 0 0
180 1 16.16979051098841 18.07566656469396 1.2826126500182782 0 0 0
534 1 14.157106334409196 14.01006206625167 3.4231815858633032 0 0 0
538 1 18.291799006410034 14.133497383788292 3.378569924337312 0 0 0
574 1 14.203551932205734 18.152713578687084 3.1765832396312055 0 0 0
577 1 16.21675292473554 16.18076522470046 3.3872931686785153 0 0 0
578 1 18.184456184413634 18.234609000221813 3.4961460386093846 0 0 0
579 1 18.227129421984372 16.13357026328026 5.417153599520839 0 0 0
575 1 14.27668046223433 16.0782261731415 5.646611074866238 0 0 0
580 1 16.255250051242342 18.121335841473467 5.475894492551664 0 0 0
540 1 16.201881030739028 14.174101215605988 5.455026806273812 0 0 0
584 1 20.13812152278359 18.139805209145493 5.662628121270603 0 0 0
144 1 20.212837225407934 14.001035098195594 1.2688970286039598 0 0 0
219 1 18.122618708177697 20.424737636573564 1.606203646169606 0 0 0
617 1 15.970252434064811 20.346610018879108 3.718326627265923 0 0 0
619 1 18.350575403612737 20.246674348635842 5.643732077211137 0 0 0
544 1 20.221821692278766 13.971827970933045 5.509835679160505 0 0 0
181 1 20.2992940928264 16.186447970529 -0.5738677187900139 0 0 0
621 1 20.271030987693102 20.124013420807103 3.6030267816055863 0 0 0
184 1 20.264933644191036 18.140539641946503 1.57828296144105 0 0 0
581 1 20.19183262598486 16.151160561424053 3.524420581239003 0 0 0
148 1 24.168574942259088 14.015936417987216 1.4195601779848386 0 0 0
183 1 22.125938035627698 16.08207571095387 1.6681188804381248 0 0 0
187 1 26.558289382075937 15.920963779578127 1.4913084967098018 0 0 0
188 1 24.321164164208188 17.8912171477561 1.378930460733096 0 0 0
542 1 22.329039846632924 14.02127371433028 3.4930648863805116 0 0 0
546 1 26.387916209836234 13.97989757886541 3.5037739096688005 0 0 0
582 1 22.300081799947368 18.169835097173905 3.7270429918964574 0 0 0
585 1 24.225491847997606 15.95615238475887 3.4337252811291705 0 0 0
586 1 26.56308217772606 18.19426616304023 3.2753261773844993 0 0 0
548 1 24.30599955547014 14.061052334405485 5.519900302223748 0 0 0
142 1 22.342257999766428 14.118569092379312 81.6253678263277 0 0 -1
588 1 24.30663215486682 18.081109411169663 5.425709401682823 0 0 0
625 1 24.437415286018492 20.19082875843927 3.5750963056574 0 0 0
146 1 26.260514591235573 14.074168712037244 81.62944499304598 0 0 -1
587 1 26.568319993117843 16.18120180931862 5.320917087493191 0 0 0
186 1 26.39275782861545 18.187481651146175 -0.4299949431982384 0 0 0
223 1 22.384939382626296 19.952888418637755 1.5371237539190532 0 0 0
583 1 22.3313906503333 16.160522014665997 5.688141775139828 0 0 0
221 1 20.0526072085831 20.213962536116753 -0.5453897634340592 0 0 0
623 1 22.072642985908193 20.283726420360193 5.6681727924920375 0 0 0
225 1 24.25217039730011 20.168964942205978 -0.5369964654032344 0 0 0
182 1 22.245191796086267 18.172071269114884 81.5442948624133 0 0 -1
152 1 28.569918985556594 13.88268117131371 1.408003102051698 0 0 0
156 1 32.4427472814227 14.1649040992413 1.1355491073994974 0 0 0
191 1 30.691031124372657 16.131169144773942 1.1696028346993181 0 0 0
192 1 28.405887693805763 18.168768329920013 1.2400681048465028 0 0 0
196 1 32.61075202715644 18.32513680091188 1.3038734186833862 0 0 0
550 1 30.584677493720392 13.93418093793712 3.388150331724124 0 0 0
556 1 32.50494190115397 13.989691835870381 5.446725037713473 0 0 0
589 1 28.53799365748995 16.2402988851356 3.1101960915454616 0 0 0
590 1 30.733547020815266 17.981307184866953 3.1669051698918214 0 0 0
593 1 32.68932277145994 15.95705729141498 3.462018635315098 0 0 0
190 1 30.499818074559485 18.375415970712254 81.58043289394729 0 0 -1
592 1 28.621300255914225 18.28063366629342 5.4426148069101075 0 0 0
596 1 32.58672524826139 18.1803469123179 5.340084788413722 0 0 0
150 1 30.361346285003737 14.120159349134662 81.48664431313541 0 0 -1
193 1 32.674815129899585 16.28864579717748 81.46027746176588 0 0 -1
229 1 28.37424363841773 20.08256346106292 81.584429800581 0 0 -1
591 1 30.553110918175655 16.13498552510189 5.183647183948889 0 0 0
189 1 28.436794087047033 16.122551873463827 81.49839162537464 0 0 -1
564 1 -0.12074113189522409 18.172887378770543 5.5610569453161345 0 0 0
164 1 -0.27269229464240813 18.106611162002736 1.6683850674951737 0 0 0
561 1 40.74779139598565 16.23066890032832 3.296789597721479 -1 0 0
160 1 36.740576829390236 13.857582454426442 1.5256267676740962 0 0 0
195 1 34.63299818735494 16.049792903021512 1.3738650996170585 0 0 0
199 1 38.56281733203532 16.221190214786567 1.3840416158435178 0 0 0
200 1 36.588665513282905 18.166693288585105 1.4919564116532027 0 0 0
554 1 34.545135595857005 13.9639458324575 3.338182236472879 0 0 0
558 1 38.74340167961712 14.081619848639155 3.3076558681976227 0 0 0
594 1 34.67246180685888 17.934270599172102 3.506130009656178 0 0 0
597 1 36.46318170962705 16.010111274436277 3.5174283637021873 0 0 0
598 1 38.52019718785813 18.133696900046996 3.440431929523342 0 0 0
600 1 36.53373233991759 17.90436540462285 5.641977900569588 0 0 0
595 1 34.62684541801333 15.791092214712922 5.625331848446637 0 0 0
599 1 38.83302440564917 16.418780102239797 5.479310743405199 0 0 0
198 1 38.78144577829809 18.341241988802636 -0.6134645688023568 0 0 0
637 1 36.570737922832095 20.103901725926235 3.6517841930006103 0 0 0
158 1 38.861824643074854 14.09072026189477 81.60635939525761 0 0 -1
239 1 38.736521370746985 20.448784174352117 1.7602883987749718 0 0 0
560 1 36.76071024205457 14.027129113507547 5.557146826659392 0 0 0
194 1 34.83593727931792 18.06233810629155 -0.5625739403661492 0 0 0
154 1 34.44676245617468 14.152077002556412 81.53977642833631 0 0 -1
201 1 -0.19338862469618334 20.046328901450433 -0.3503092169886777 0 0 0
203 1 1.7393621460675708 20.34410505156924 1.5925316505543812 0 0 0
207 1 5.945350454283335 20.22669610368238 1.4066624874132954 0 0 0
208 1 3.8383371357752276 22.250434828920714 1.4223223087111294 0 0 0
243 1 1.8003730370888054 24.326934557941023 1.3189773247433303 0 0 0
247 1 5.6983476879178445 24.32393116836651 1.33134243355387 0 0 0
248 1 3.891283847732038 26.471970275504468 1.3658295635049327 0 0 0
602 1 1.6399633310884214 22.183469806575015 3.6752001523611986 0 0 0
606 1 5.74714677790623 22.268551200412613 3.6882688527077594 0 0 0
608 1 3.6707164847996228 22.139212123340144 5.742563725498099 0 0 0
642 1 1.6108709623893755 26.137634379239017 3.621683102857549 0 0 0
645 1 3.6714504796339176 24.026468619668492 3.548559344261279 0 0 0
646 1 5.577353195030786 26.31114206910787 3.6123476398518664 0 0 0
647 1 5.654261379839498 24.15249407429616 5.642898857460034 0 0 0
648 1 3.729639235909227 26.392026826989802 5.443487136126531 0 0 0
641 1 -0.24200730124959968 24.3700650194444 3.5781360851674497 0 0 0
604 1 40.78271163046797 22.410467973168632 5.845400471101232 -1 0 0
242 1 1.788635604064225 26.290807943411288 81.60878588744953 0 0 -1
202 1 1.555901684287186 22.017906115292284 -0.6228846980413607 0 0 0
643 1 1.7037058200786057 24.21343443479035 5.576075222405529 0 0 0
206 1 5.986399349015704 22.27807571178216 81.4633263613755 0 0 -1
609 1 8.152477301644591 20.198126212617023 3.3559675173240016 0 0 0
212 1 7.7467069860919615 22.225571468790417 1.540213969600412 0 0 0
216 1 11.866348677040508 22.402725190296888 1.1928902849833942 0 0 0
251 1 9.940927702407082 24.410260525329218 1.3411654545981715 0 0 0
252 1 7.810511805938274 26.40113268646454 1.6824668631611202 0 0 0
256 1 12.092913091451159 26.404472682979645 1.387237111863619 0 0 0
610 1 10.184890533821227 22.447112805283695 3.3991581991741606 0 0 0
612 1 7.919290936991066 22.211412528044292 5.356887220401745 0 0 0
616 1 12.048913383604718 22.25149343400801 5.461370329137357 0 0 0
649 1 7.827765979427868 24.162734149095332 3.5096167318450524 0 0 0
650 1 9.87902647468365 26.36802625271518 3.481802889829777 0 0 0
651 1 9.810639029565264 24.26420917454998 5.532911892965341 0 0 0
652 1 7.595972964542053 26.259317726977244 5.576472290248046 0 0 0
653 1 12.038319385338983 24.525952368690582 3.3744367216108415 0 0 0
656 1 12.002542423211695 26.50558322559448 5.420397058689653 0 0 0
215 1 14.18797866397293 20.490103036011813 1.1791518348044552 0 0 0
615 1 14.052965066051051 19.96587458983513 5.671217593883058 0 0 0
217 1 16.330464340743102 20.307828474141864 -0.4178360366461139 0 0 0
220 1 16.179131720410805 22.40631213641605 1.3765887844846993 0 0 0
255 1 14.130730109135566 24.332172361341243 1.3399117672402372 0 0 0
259 1 18.281986004723308 24.359723536887877 1.548498967242716 0 0 0
260 1 16.111062954562236 26.286511133247195 1.445394685921697 0 0 0
614 1 13.80579252230119 22.372155850921203 3.3455436035606327 0 0 0
618 1 18.125217034857243 22.21516740317588 3.4543625993142104 0 0 0
654 1 14.003468374824287 26.409397969851856 3.492373230404212 0 0 0
657 1 16.134714952540904 24.493044241805084 3.4784587250659413 0 0 0
658 1 18.179845927596485 26.409495840363423 3.533020659879087 0 0 0
660 1 16.2180740552819 26.63702316680908 5.578340772137339 0 0 0
620 1 15.993717320979169 22.438932870504043 5.635455668649665 0 0 0
224 1 20.24329887943863 22.20327546742043 1.53420878079831 0 0 0
655 1 14.066364612913963 24.234963255270145 5.576252734285812 0 0 0
659 1 17.835038889803588 24.41073232950213 5.4378796408240255 0 0 0
661 1 20.22336440499458 24.43011797515156 3.628158868659571 0 0 0
664 1 20.361972117631023 26.480972270411407 5.722259593600743 0 0 0
264 1 20.282865686807426 26.48094022330403 1.5213186593511736 0 0 0
624 1 20.17711253742877 22.38190976732393 5.679527973461626 0 0 0
227 1 26.290571728850164 20.325348756064706 1.5786855875034513 0 0 0
228 1 24.416709595496826 22.349040737153103 1.5965984952010448 0 0 0
263 1 22.242921858732647 24.258965451476847 1.6219447181797833 0 0 0
267 1 26.502749814413725 24.213972756910746 1.5808927554472754 0 0 0
268 1 24.393235521553297 26.249031745056953 1.2125235623517456 0 0 0
622 1 22.29330271367277 22.19037725768102 3.71940057915507 0 0 0
626 1 26.42292466658629 22.358040334130166 3.5420753640529803 0 0 0
662 1 22.43663322911313 26.49345022334059 3.3169996615786435 0 0 0
663 1 22.32615515124048 24.398606280395683 5.333786233956473 0 0 0
665 1 24.528963344703758 24.405872444022485 3.5751833403295654 0 0 0
666 1 26.658590351889973 26.256427051369794 3.608915097925748 0 0 0
628 1 24.38930483433402 22.267460437027246 5.5428190094416205 0 0 0
627 1 26.672616329421917 20.49311575216538 5.606352521859391 0 0 0
222 1 22.375246792475906 22.116954901983238 81.6298292769091 0 0 -1
266 1 26.352093155196734 26.111824649747906 81.47290577985058 0 0 -1
262 1 22.401637625059287 26.350810879067645 -0.6020430708247488 0 0 0
226 1 26.367135984915585 22.00661521709748 -0.5810191042572211 0 0 0
233 1 32.8642828923314 20.444387885662078 81.39588057380374 0 0 -1
633 1 32.61841209768525 20.200283366864138 3.4584755009912325 0 0 0
631 1 30.640453032469946 20.3299366920158 5.613945592837972 0 0 0
231 1 30.527524037183895 20.34743028768224 1.3446323910977431 0 0 0
629 1 28.628245200703677 20.346577040488157 3.5124630004272888 0 0 0
232 1 28.515841521920205 22.301119818211877 1.6684527556701525 0 0 0
236 1 32.5497267201288 22.30564936925538 1.4849785671167686 0 0 0
271 1 30.533630721700604 24.31573797719812 1.4869039860308368 0 0 0
272 1 28.430310664288452 26.362780649004886 1.3340542227838388 0 0 0
276 1 32.44713470803883 26.3258873820975 1.2814908589839997 0 0 0
630 1 30.652804193229453 22.493546138624225 3.4920165602142887 0 0 0
669 1 28.547702080880985 24.275984381949684 3.692377694773584 0 0 0
670 1 30.45644927315971 26.523395182478126 3.3017087460054833 0 0 0
673 1 32.71468687856854 24.247248851285253 3.4550678813738225 0 0 0
632 1 28.687789099277254 22.3862038693851 5.604338481082839 0 0 0
671 1 30.699094170669316 24.524243220075274 5.386725203939367 0 0 0
270 1 30.46868189371592 26.384725675354787 -0.5976344435523515 0 0 0
230 1 30.435149035509102 22.432864162954882 -0.5649424547827095 0 0 0
237 1 36.85028778738932 20.336545266653637 81.5840993450453 0 0 -1
235 1 34.77434946854426 20.246509571830142 1.3349408687767383 0 0 0
204 1 -0.22711379317485336 22.344795842498844 1.5723977459412235 0 0 0
244 1 40.71454033400223 26.4332986819702 1.4181690579464545 -1 0 0
644 1 -0.18464444982874045 26.33834748819788 5.585736438825572 0 0 0
241 1 40.79334619019916 24.4129951543049 -0.5009865174299932 -1 0 0
240 1 36.60803428845806 22.391234014079508 1.5384109643229351 0 0 0
275 1 34.767421223122255 24.227674497289787 1.472297966262515 0 0 0
279 1 38.79959184653106 24.3215445918084 1.6399410150193408 0 0 0
280 1 36.69408267535239 26.29669390825265 1.5451141235177732 0 0 0