LAMMPS data file via write_data, version 7 Feb 2024, timestep = 13000, units = metal

8000 atoms
1 atom types

-0.3171772480321202 40.8171772480314 xlo xhi
-0.3171772480321202 40.8171772480314 ylo yhi
-0.6343544960642404 81.6343544960628 zlo zhi

Masses

1 26.982

Atoms # atomic

445 1 40.23542034642254 2.5128172905194934 1.8109789848868831 -1 0 0
7242 1 5.205933152536215 2.333024643483909 0.3473304511239653 0 0 1
405 1 5.132992552874841 0.8816862077167372 6.331122772275239 0 0 0
408 1 3.088625910325279 0.8079334938266562 1.914111837877989 0 0 0
1168 1 4.897889376752373 1.2838607887782005 3.7835234755389395 0 1 0
450 1 4.985333442963826 3.846590639604333 2.481361773223477 0 0 0
804 1 4.1917537099581095 3.4576797473585623 5.107106808518841 0 0 0
477 1 2.528697329145168 0.302364222363568 5.060551182859705 1 0 0
43 1 3.325986254042967 6.077818090336571 4.430365758651935 0 0 0
87 1 3.450867502352923 3.9810214873384027 0.4483894944781643 0 0 0
78 1 0.036783152515142366 4.827618795429759 3.7966973088307525 1 0 0
404 1 2.117606054761927 2.6548327437737345 3.1234138145452346 0 0 0
446 1 6.021807667123936 5.146098130812669 5.452136441368784 0 0 0
76 1 0.8036782837703683 1.0197610091801461 0.8333233143183966 1 0 0
88 1 -0.24922758608578596 6.3984229587958525 5.979384321740729 0 0 0
439 1 0.1707976661220483 40.503852296247814 6.305188814021311 1 -1 0
850 1 5.9724504159150715 -0.018189916489932918 1.942692214976528 0 0 0
4 1 2.825175490452506 40.13039981694506 -0.15709358028302234 0 -1 0
7675 1 0.36433656423996846 2.118240112154772 80.86442811259867 1 0 0
7673 1 3.854644586602139 39.503199255610156 2.792877823678053 1 -1 1
7598 1 7.405221737889371 2.2287542221483325 2.6683769945719584 1 1 1
53 1 12.202829906921815 3.511400510641339 1.2830327560505121 0 0 0
14 1 12.374062159327266 4.107348615748784 80.4786720737724 0 0 -1
131 1 8.222831067673843 6.622716510895948 6.54997322435844 0 0 0
806 1 12.960799427827768 2.0227832080020423 4.669125848351397 0 0 0
455 1 8.492618649228712 5.360864419693469 3.9432727227592608 0 0 0
412 1 10.151602186131468 2.5488902694741005 1.9222751421572075 0 0 0
406 1 6.267336078847908 6.179168160169953 2.6979583517721815 0 0 0
100 1 10.892877213178185 6.659884587470714 4.544276933340549 0 0 0
13 1 10.842771247953925 5.756896181814069 1.9869037044876559 0 0 0
52 1 8.144710891253844 4.7884507340975775 1.7747585461436919 0 0 0
849 1 14.003507962477023 0.5246768496441395 2.249996020261038 0 0 0
7576 1 10.498614735316679 0.5501883373968635 3.5243765256492856 0 1 1
7887 1 8.804807266134743 -0.2974236347192551 1.4693577322377251 0 1 1
413 1 7.6748850063523575 0.23886117173078364 4.463420403577278 0 0 0
7937 1 11.342932155849171 40.78653370088349 1.1346767231361958 0 0 1
1562 1 9.668803864266028 40.80876099337947 6.168275534466678 0 0 0
807 1 9.222507789702345 2.278841643302344 4.646089925196746 0 0 0
7288 1 7.603936153447992 2.0909508020256067 -0.2041885618202052 0 0 1
7526 1 11.566766921329243 1.5935942105928875 -0.2927666832437829 0 1 1
7964 1 16.29814211292174 1.223502157151008 3.556576581870224 0 1 1
856 1 13.792490782987372 5.888106732298647 5.315354802798879 0 0 0
409 1 14.039882570994559 2.328684891783454 0.33165470392459034 0 0 0
49 1 14.402120485941646 3.8328136782249054 3.415638530172297 0 0 0
411 1 17.430819348330242 39.94212904077384 2.866363535367285 0 -1 0
496 1 18.360348746044785 5.664260723914877 0.9114267321759951 0 0 0
459 1 17.815446008698498 3.521490203607111 2.6104775938636644 0 0 0
51 1 15.780618154927454 4.348130469646645 1.0800132078144307 0 0 0
6868 1 19.08408000979102 4.916017913535794 4.3113943982058185 0 0 1
498 1 15.574272186658286 6.757243754580892 2.564060858167902 0 0 0
818 1 16.48511902329548 5.0974226300660535 4.735024222625973 0 0 0
419 1 15.077347801292138 0.5679004405025581 5.711538051367619 0 0 0
773 1 17.47360282803451 3.412116678502005 6.536051848104053 0 1 0
420 1 16.547686406392756 1.2002961716271425 1.0698153098710197 0 0 0
817 1 20.203211118842596 3.4250934580949113 6.765119937023402 0 0 0
7299 1 19.180303424942974 2.1142640868658162 4.898576808249942 0 0 1
421 1 19.028816886443323 2.8446242698465913 0.3314616960244553 0 0 0
1180 1 20.395951280061116 3.630433481083275 2.1248320117404 0 1 0
7328 1 20.706419740602502 7.5236432652088014 -0.06072206889228654 0 0 1
95 1 22.624165214155326 4.756485986232402 1.9385962086977437 0 0 0
59 1 24.557016477696997 5.184781329205402 4.179609945954144 0 0 0
458 1 22.523559016279652 6.196982380569351 6.5657025020956254 0 0 0
792 1 26.578327814999913 2.8112612795892904 3.56161812943422 0 1 0
26 1 24.846172548827706 3.8617470422831053 1.6896173057411805 0 0 0
7744 1 20.381745943359984 6.66294528452031 2.5756436443329487 0 0 1
383 1 24.117697776548635 2.381518056242028 3.848434838103487 0 1 0
470 1 27.254297747642223 5.78624305038079 3.387180600870472 0 0 0
24 1 21.64026087769098 4.511688878818067 4.4887741646450605 0 0 0
782 1 21.514624740696497 1.6088794560624864 4.001238582341111 0 1 0
510 1 25.416487242015112 1.7464235721900254 0.32619814337588027 0 0 0
822 1 24.220652825921007 -0.10248165933078093 2.542856321601707 0 0 0
737 1 22.933349610189016 3.178502248348034 -0.1703244065070224 0 1 0
7613 1 24.05273410577919 2.817511414367123 79.53784095647042 0 0 0
422 1 25.601336357690133 6.367943506900434 1.7205635380950508 0 0 0
28 1 27.886385414237363 1.3956950946907993 1.3423232431192205 0 0 0
107 1 30.352889920437203 1.6062736784143645 0.7883222505877897 0 0 0
831 1 29.02157260118641 3.1484686790999046 3.0496865701022444 0 0 0
434 1 27.98672651442383 0.5526782288455216 3.916199456179381 0 0 0
44 1 30.54595764724468 3.934783003432484 5.153331865748819 -1 0 0
7719 1 29.56101338854489 5.471067220873156 3.3505884981814793 0 0 1
874 1 30.382066602949273 0.8359703224744933 4.499044751341879 0 0 0
1190 1 32.23038569314811 38.99087671297804 6.214572749528173 0 0 0
553 1 30.05922381484866 6.916237819456424 1.3799682293144548 0 0 0
105 1 30.1617375096361 3.864266293587579 0.36782397103572473 0 0 0
6911 1 27.578396474104636 4.026194895573149 1.073025237605347 0 0 1
400 1 31.60361363281014 2.399757853412647 3.1452227135816093 0 1 0
516 1 32.84823169965676 8.222148264369638 1.0316688475080769 0 0 0
436 1 29.792587700811897 40.47827226450818 1.741479154105598 0 -1 0
6588 1 28.555947516070113 2.939968886103441 80.85675262413503 0 0 0
7706 1 32.083430029209005 5.263675043217812 1.740638511150734 0 0 1
1 1 32.79821241902092 2.560560239513953 0.8119264667033019 -1 0 0
67 1 33.09916578702807 2.3932354471481627 5.367025420998793 0 0 0
7283 1 34.65766545438705 6.450590661304215 0.9131338182616252 -1 0 1
6 1 38.1014689243563 4.344955497274801 4.699596668438331 -1 0 0
6984 1 36.211961674586526 40.66397469810505 4.385759608801233 0 -1 1
6480 1 35.89770129031642 4.122699153656072 0.5467132933598801 0 0 1
79 1 38.53444249901018 2.5812797107513843 0.009860237111194398 0 0 0
478 1 39.19148297928479 2.408480722351065 4.317825325429428 0 0 0
7280 1 40.54295151272345 4.797993884636678 1.0969236846168484 0 0 1
80 1 33.92684421507643 0.3375962857429796 3.8933016567691543 0 0 0
918 1 35.846575450358394 2.644920356121595 3.9883312514911475 0 0 0
35 1 35.03713611787309 1.3885606951580256 1.5357548323842625 0 0 0
515 1 34.252384450714736 3.9436157072263267 2.6264729444338464 0 0 0
764 1 0.31031168763054195 1.3249244711336299 4.151308450735612 0 1 0
7676 1 37.956844882435895 5.733852511341426 -0.0011263455560063338 0 0 1
517 1 38.28118092371281 4.55688850262316 2.3186532258513335 0 0 0
7643 1 37.67595239637867 1.0287745585064514 2.5802298764894442 -1 0 1
7609 1 37.175898288860246 0.22043728136548327 -0.6113310092723288 -1 0 1
485 1 2.4207701949202054 5.731814749369356 2.0137942931858794 0 0 0
7247 1 4.817094531920877 10.648544874686392 4.889219057141412 0 0 1
7768 1 5.87185510291676 7.530722402042188 80.84169829037522 0 0 0
486 1 7.085448936659857 10.609669598197808 0.26471974675228077 0 0 0
561 1 0.7185162508089463 7.352869802857289 3.877004284537733 0 0 0
522 1 2.7367134461005627 8.547939207037775 2.1244607625678786 0 0 0
6808 1 0.5293501450211479 7.192776401347488 0.8279951000014643 0 0 1
448 1 4.205916194027564 6.544027686989874 0.7193338011021729 0 0 0
492 1 5.53960715508282 12.172965080380234 2.474720937463036 0 0 0
164 1 1.6425030484907874 13.02661792870472 1.1737148736482035 0 0 0
926 1 3.713201027490082 14.551138352984328 4.110168310793107 0 0 0
852 1 4.7625371087121735 8.129638404857927 4.8602855851108036 0 0 0
199 1 0.8391020569589198 10.08825376357852 2.012565504185439 1 0 0
565 1 1.9784592482376713 10.107434796203295 4.8010928891007305 0 0 0
563 1 2.93621235407437 11.809183657708042 2.940029447998547 0 0 0
528 1 5.4440379711205145 12.521651156625978 -0.031706053408195135 0 0 0
677 1 40.12081996675526 11.943371124116116 1.6436330281834675 0 0 0
481 1 3.538199220139728 8.505838036325487 81.59688226828023 0 0 -1
7369 1 5.053012605587009 10.175847545561162 80.8275517338442 0 0 0
7718 1 3.448410211451229 11.303116297740857 0.4940329520832476 1 0 1
854 1 13.123633175867592 8.308266225664973 4.590505360536497 0 0 0
886 1 7.393977730015877 8.135148726500695 0.8286442707582735 0 0 0
447 1 5.068315667156383 9.704381264081793 1.8520745904454015 0 0 0
532 1 11.155414589994644 11.017330961022262 2.0816866846723214 0 0 0
128 1 7.840567161896241 10.459758588645753 3.1586874873412425 0 0 0
12 1 10.629352022478189 8.42892176306542 2.6833371537494157 0 0 0
6935 1 12.201057027416034 10.980900653012608 4.310838519513064 0 0 1
536 1 13.101130645178568 6.442069118142022 2.5335258890723145 0 0 0
7327 1 12.832060168947306 13.31348849046656 2.6560259711904233 0 0 1
977 1 9.470034770911234 12.507842762729252 3.7658027567429424 0 0 0
6527 1 12.454131318110752 12.974513643303494 0.14757608579488146 0 0 1
891 1 8.326768495877763 7.778949982903362 3.28441626793757 0 0 0
7678 1 9.739318715406133 9.684750047082861 0.145381983411339 1 0 1
6846 1 10.199760085105286 12.031056685119765 81.48452055702398 0 0 0
7657 1 12.253189459716392 9.463755452897859 0.14579838309495805 0 0 1
500 1 16.475377688311543 9.776702547175127 3.3016847060385106 0 0 0
898 1 17.772253057522775 7.398151981628202 4.359036774614936 0 0 0
493 1 15.57911660349182 7.9689715024047105 5.444274827788834 0 0 0
56 1 13.871171491242594 9.228538464825432 2.242936874941758 0 0 0
96 1 14.406512803271983 7.685038890536903 0.01879935321803047 0 0 0
457 1 19.095520321535584 10.003971865113398 4.991034692366832 0 0 0
7448 1 14.693460768153141 10.939457515304936 0.007155601089351639 0 0 1
135 1 12.090168539009335 11.292630710507586 6.831391933054679 0 0 0
7727 1 17.50806879758336 10.957945299214039 81.23027331517842 0 0 0
5303 1 14.427785148576264 11.271632740439845 3.1516206826010076 0 0 1
94 1 16.341287210909805 9.162351109718465 0.3968710406086263 0 0 0
456 1 18.206432094934097 11.541821597762551 2.176003451587126 0 0 0
7736 1 15.957658043546331 12.716455991781247 1.4855522975607613 0 0 1
575 1 16.522965278897416 12.021345627114684 4.556034406331302 0 0 0
1297 1 14.507965040812559 10.482530945466326 6.025158808153816 0 0 0
945 1 19.51683017610841 12.564699706659548 81.36921526932964 0 0 -1
7667 1 20.920497790821088 9.114392761246329 2.9127347877476826 0 0 1
941 1 18.554468183677013 8.18377379538982 1.7331844800188352 0 0 0
472 1 23.443609410079105 8.990294022214588 5.192392620069815 0 0 0
7748 1 22.987631914564343 6.97971223464759 3.5358947262048748 0 0 1
69 1 28.063589519353258 11.052346847993459 3.4676097275416184 0 0 0
909 1 23.813126250726867 11.028417570414057 -0.26377790098301407 0 0 0
550 1 26.125416644363863 11.33887257212504 1.5040531637722145 0 0 0
428 1 20.860862171544003 11.370812105333277 1.524649492674391 0 0 0
503 1 20.701207429595993 8.094304352589418 5.165298748991797 0 0 0
906 1 22.047462340255045 11.197789318210548 4.333066446721418 0 0 0
102 1 22.686596719448822 13.223231437739804 1.9459248573701466 0 0 0
104 1 19.90034892712509 12.257737221306403 4.337833218429761 0 0 0
101 1 23.444298872662035 9.950938341946227 2.5429421780555046 0 0 0
505 1 23.307307095417606 7.384535111232813 0.8692325266281744 0 0 0
425 1 22.179906951408082 9.436275269107252 81.31297109838347 0 0 -1
545 1 25.237290181904612 9.018541133524348 0.7673184241519513 0 0 0
520 1 31.45624983353279 7.113345398801588 3.4250124082195126 0 0 0
509 1 25.466168786949268 8.349297268343857 3.646007766030849 0 0 0
556 1 27.72844955315577 8.062141199709314 5.5161269754342666 0 0 0
194 1 26.90497687894564 11.860676984605572 81.51093792738857 0 0 -1
506 1 28.10962553248762 8.96659399587571 -0.4800794826283836 0 0 0
111 1 32.313358627898126 11.548833634455988 0.634335316713297 0 0 0
7724 1 30.80225603133659 8.789846321211435 -0.35886731291498736 -1 0 1
112 1 29.363053903322257 11.057285103756124 0.5508168203671514 0 0 0
84 1 34.14933676542695 10.15484581781266 0.25654574463564866 -1 0 0
546 1 27.7579028803236 13.424308711295527 1.3343753453742866 0 0 0
155 1 33.558792223091906 13.288825753918882 81.0544706521848 0 0 -1
195 1 30.36475530621489 11.98028731156647 4.374986001761376 0 0 0
467 1 28.000335466445787 11.439274024497184 6.246171443341036 0 0 0
910 1 28.107880968187775 8.583644962093203 2.36806069254786 0 0 0
949 1 31.394144954434502 9.806108459877404 2.1223193602746573 0 0 0
557 1 35.09532511119791 10.218669389504997 4.9997089735460385 0 0 0
997 1 27.96692626244943 13.524716212814932 4.218068336578097 0 0 0
913 1 29.98906977235624 9.359282329323099 4.512939653011281 0 0 0
882 1 39.1184589348976 7.634529463658864 1.5960057600494846 -1 0 0
559 1 33.92648276346343 8.819419453940224 3.3169046585233355 0 0 0
6124 1 36.332579657516575 6.008222395481605 3.081770336850418 -1 0 1
7967 1 40.37859465775836 8.698884054836455 81.32764468322733 -1 1 0
513 1 35.894729010718066 11.406315949294335 2.8412698903153952 0 0 0
7315 1 38.08715511527525 9.964727824770849 1.7050032389859586 0 0 1
525 1 36.70163216792019 8.543182641527311 3.999056152573375 -1 0 0
593 1 38.08621715484883 11.655742606611494 3.862042468442151 0 0 0
123 1 34.71029240320504 13.051112720808876 1.644880104551844 -1 0 0
124 1 34.89517445886707 6.761409018903794 5.261024973400007 -1 0 0
958 1 39.794750631496534 9.272562533013415 3.675208251393337 0 0 0
7754 1 37.7718261919964 13.63044452328853 1.859915833988416 0 0 1
119 1 32.81190728041158 11.49556807900812 3.652477637413116 0 0 0
83 1 38.99368742573455 11.053680382585208 -0.543725898338721 -1 0 0
7792 1 35.13919607321572 8.619411002731242 80.92809507524666 0 0 0
7700 1 35.82210230916479 8.582936716569197 1.596141398912216 0 0 1
7785 1 36.442349437118025 11.722673377478156 0.20187242807580116 0 0 1
132 1 6.206928549703326 15.859148803393383 0.5215212629421366 0 0 0
681 1 5.559373053335395 15.751777632419612 5.937066437933908 0 0 0
564 1 3.0918304465789705 19.30783819792976 3.445574133742272 0 0 0
277 1 2.8515822908093384 17.120835622474804 1.6448023993902856 1 0 0
7825 1 1.873014226116347 15.543686388045058 -0.04953039945861994 1 0 1
208 1 3.9829483140025697 14.573972756277467 1.2247411763017988 0 0 0
602 1 4.80594614407825 17.088894595702527 3.5184354878035906 0 0 0
7812 1 5.803204585930486 18.23614334086114 1.4201295247870849 0 0 1
320 1 1.218406703578485 15.340718534376872 3.0741568829441666 1 0 0
1039 1 2.487588955634408 17.107964914284075 4.67469686644397 1 0 0
566 1 0.1926687390509965 12.859289429548276 3.7870923731299286 0 0 0
7874 1 40.449066693072304 14.512271014180865 1.8182653415380308 0 0 1
641 1 -0.2593055723574764 16.84295451708546 0.5882681994650115 0 0 0
1038 1 0.1966507618272789 18.49810708813672 3.0291786621612586 1 0 0
6934 1 3.197076508364673 19.82088343455258 0.7523273288460061 0 0 1
210 1 6.064809607388268 19.847537471372345 3.7645928995060167 0 0 0
961 1 3.649162595099972 14.25554447629624 80.50634447808909 0 0 -1
572 1 7.789235502258534 19.135128273032368 -0.5156243336361706 0 0 0
130 1 11.928360146738095 16.284498361105857 0.12526074830258907 0 0 0
609 1 6.174328704751257 14.614980283691086 3.1476862000595283 0 0 0
526 1 8.031795890524544 14.963782598384663 5.401806815293284 0 0 0
41 1 10.27771626427726 14.113055742117108 0.8746170523839469 0 0 0
140 1 13.657660525806978 18.639609328986275 -0.14971448188795516 0 0 0
209 1 9.014125716798478 15.0466374159186 2.655552364536286 0 0 0
7849 1 13.905467623585476 15.836199194132961 80.66415982086612 0 0 0
569 1 7.51920955738579 14.015274377973475 81.42166238576733 0 0 -1
285 1 9.01426452194292 16.69742753015472 0.05542391552834529 0 0 0
571 1 12.548057792735635 18.242782335822987 3.143811506296729 0 0 0
6882 1 7.432724396885001 16.71830330931966 2.333698511786884 0 0 1
971 1 12.708663062347885 15.944715048007046 5.38789205581301 0 0 0
936 1 8.057670421820783 12.674179609010293 1.4092574144678764 0 0 0
606 1 8.272125700394254 19.579909153975095 2.225459802096168 0 0 0
172 1 10.231360388467504 17.604331423584973 2.0753184451563427 0 0 0
603 1 7.439298866587487 17.350650825934895 4.8909210294662 0 0 0
205 1 10.962543293081612 18.829391971354983 5.7181829115988965 0 0 0
1373 1 10.059010287338303 16.599862674462702 4.5964609710212905 0 0 0
540 1 12.081274312013013 15.75826048329376 2.9714971680776063 0 0 0
653 1 11.077655086559393 18.791574608056077 0.25335132461359566 0 0 0
544 1 18.285339630120895 14.12633393727244 2.642807904420158 0 0 0
176 1 18.212922830225367 14.795920069994228 -0.5990057621210809 0 0 0
162 1 15.34781199371341 17.728281396804945 1.5187670039771815 0 0 0
129 1 14.346118660153286 15.21790218559969 0.9767068656706498 0 0 0
576 1 19.71746552939001 16.722473034258 1.2939170274600522 0 0 0
138 1 17.58946860370899 16.85545734236045 3.2430885077309153 0 0 0
92 1 20.959667303573013 16.191502254617976 81.29184923285138 0 0 -1
179 1 19.52687455589949 18.596268707597275 3.2221007997432514 0 0 0
580 1 16.686084792011155 15.693687743050514 0.8531085262255349 0 0 0
619 1 14.5359204825912 16.293511263009208 3.594407523202664 0 0 0
534 1 15.096168294176353 19.15266992649151 3.734925376427494 0 0 0
259 1 17.242649846705845 19.2698519431255 1.6145348926303023 0 0 0
614 1 13.159673104607792 17.81780729059391 7.139333888456047 0 0 0
98 1 15.81387189242592 14.329707076647209 3.907142715651991 0 0 0
289 1 16.781557093934044 21.732843860501923 1.1402300270634886 0 0 0
1298 1 18.394968486025856 15.03289721583487 5.081488773827534 0 0 0
1015 1 18.40670534084404 18.165499610084684 5.721528521627074 0 0 0
213 1 12.355762613671883 19.299368184153096 79.54682604392312 0 0 -1
7707 1 18.801448521986547 17.753355202906224 -0.555615502380812 0 0 1
507 1 25.801783237942036 15.236221998728285 4.500985586326242 0 0 0
584 1 20.692916596060357 14.824250561340474 3.2189269792891384 0 0 0
902 1 23.755688323210435 13.554702612903442 5.363460503004573 0 0 0
144 1 20.40510490845779 14.186201344172828 0.9250712202202299 0 0 0
7391 1 22.72901572238861 15.866564683209187 4.764452522675171 0 0 1
70 1 27.027927365146315 18.09007954918631 3.521333430885106 0 0 0
7820 1 24.394485070927484 17.530266056161796 3.6549210028950765 0 0 1
7221 1 21.909708746082266 17.15601693249062 2.7571908140722345 0 0 1
7098 1 26.711739830017542 14.62990182483207 -0.6017030087670191 0 0 1
632 1 25.149190443019684 13.400593521922444 3.002376455430506 0 0 0
7918 1 26.044216304046323 16.166130508291424 1.6094914466468648 0 0 1
985 1 26.04251665505786 18.81321163580959 1.1524341819144288 0 0 0
7544 1 25.635982347859372 17.07398782828813 81.08236775198904 0 0 0
147 1 25.589309440037866 20.372642972635436 4.142816938406522 0 0 0
1025 1 21.818633016522295 19.225479864088506 4.931986424599219 0 0 0
542 1 23.43731688738445 15.407016211845196 2.021398732043852 0 0 0
7818 1 23.442456632732615 17.62194841538367 0.28207016890911846 0 0 1
590 1 32.56826974576997 17.562243322039226 5.120597557335774 0 0 0
547 1 28.277706195604807 15.805825566473146 2.906437560498348 0 0 0
629 1 28.44843174629955 17.800880327786036 0.6568011995338653 0 0 0
596 1 30.931358935828957 15.090406298542632 4.470682402010664 0 0 0
160 1 33.98785527627042 17.437349912399508 2.8221545374325934 0 0 0
680 1 31.276078422691647 16.226544294217586 2.1175995718163105 0 0 0
183 1 30.68450842040197 13.260662858671335 2.018538969256371 0 0 0
190 1 33.96088020489975 15.944708351451379 0.5153692929220982 0 0 0
554 1 31.407291947001614 17.1770554128538 -0.307380919483164 0 0 0
637 1 34.63938423022632 19.00664764971543 4.7113809107677636 0 0 0
7917 1 31.49361704628596 19.636324792001773 0.6808613633203946 0 0 1
7475 1 32.28428462418117 19.51841672008782 3.2274582618330605 0 0 1
594 1 33.82551503753558 18.324503540303105 -0.464144106622826 0 0 0
7880 1 32.462815118382956 20.882241315041213 80.4252302835136 0 0 0
633 1 29.874446059422066 18.527400170325567 2.729865355462387 0 0 0
1034 1 32.920847806266586 14.488151333215283 2.8362531961765707 0 0 0
7258 1 29.10527287489161 15.526785305109824 0.4994615548868145 0 0 1
635 1 29.287009023482362 13.156485192831603 81.61419115335616 0 0 -1
114 1 36.322777720867755 14.81162283946893 0.04947114414351997 0 0 0
995 1 36.032332452851115 14.998987561604167 2.876937422657353 0 0 0
518 1 39.07251455779588 14.183994115719761 4.96238822357721 0 0 0
240 1 35.428701711205754 13.229878819369679 4.945731435616293 0 0 0
1033 1 37.094832530496404 14.765905146508468 6.583493296544054 0 0 0
200 1 39.36523178320188 16.426708273358496 6.601877587174873 0 0 0
600 1 40.169631583298504 16.519797754972515 4.103142633704723 0 0 0
675 1 38.51045399039243 16.142963445752798 2.143229706243462 0 0 0
6195 1 37.45709229596384 16.91764728143383 4.7255197042142925 0 0 1
239 1 40.67697069831798 19.733359035752496 5.472427667939275 0 0 0
1035 1 38.003184836717494 19.456922161395923 4.728661142194194 0 0 0
7755 1 36.47526867333978 17.932196418098012 2.408467598588795 0 0 1
7835 1 38.805305475721774 18.941402465912454 1.6094590476739032 0 0 1
601 1 39.17728691560322 21.2655834891346 3.425518351371532 -1 0 0
154 1 34.18185035435237 19.361892948140223 1.668376805250383 0 0 0
310 1 37.856780213718544 16.81191490434755 -0.21467615568497223 0 0 0
281 1 36.63069429292171 19.597985557699563 -0.14010597080324577 -1 0 0
278 1 1.8879554137373977 22.205759006589474 0.8168893338111269 1 0 0
598 1 4.151243507213081 21.613515703511474 2.1554132778958772 1 0 0
648 1 40.47594876695013 22.890376129058858 1.8672722656290086 -1 0 0
687 1 2.082869441636819 24.820820276186893 0.5197822766458295 0 0 0
1041 1 2.0396492539203135 23.575810673958166 3.151553585481351 0 0 0
6679 1 6.114980664181581 23.52900392451807 1.5484475785281784 1 0 1
7441 1 0.9713433551351054 20.882678822123268 2.954183286021637 0 0 1
1002 1 2.308952445708388 19.74511758192558 6.211994858345406 0 0 0
1043 1 5.068838520592189 24.81621457869981 3.86774836038351 0 0 0
642 1 3.9929780096330374 21.878585477677856 4.934174166417042 0 0 0
241 1 2.2293682772858263 27.075328711561927 81.57806193674328 0 0 -1
645 1 6.505610184959946 21.031038983809886 1.2461622834020651 0 0 0
674 1 0.17876256374767147 25.321741752520623 3.042411872403661 1 0 0
1119 1 2.578139220859189 26.33877475240095 4.072647334956179 1 0 0
7450 1 4.3063133091168595 22.83895191222128 -0.22321224436201215 0 0 1
7045 1 5.33745636443682 20.45766433463491 81.29968895197813 0 0 0
238 1 4.281720480940807 25.57736523193556 1.2656552575166253 1 0 0
610 1 6.3070728852713085 24.599054086489808 6.2566292865845305 0 0 0
1014 1 11.277901276177786 23.158606186006956 5.432613777244534 0 0 0
615 1 9.028926731980981 22.15015749174768 3.148992073759205 0 0 0
620 1 11.282738457869224 20.60654681508797 3.2939077338747618 0 0 0
296 1 8.59651313339927 19.86685371146958 4.626384742248584 0 0 0
647 1 11.48144152228463 22.410857589616594 1.440841168970573 0 0 0
246 1 8.695495421448753 24.21563624150298 1.0781466913172482 0 0 0
6333 1 12.418526262961189 27.211731442219268 2.227885659536132 0 0 1
1046 1 6.198177172940353 22.437972084821343 4.004212323379994 0 0 0
652 1 13.239188620648317 24.56303572958444 2.8347166908154273 0 0 0
1049 1 9.362800008190396 21.355748042770603 0.4861603685782955 0 0 0
650 1 10.687493101508684 24.825587355976747 3.837186663714367 0 0 0
655 1 7.184190675850893 23.25501007803116 81.40149371906713 0 0 -1
182 1 13.126563226648106 21.132748547383372 5.2076457990844025 0 0 0
322 1 10.890644596297312 25.45961834532889 1.205184534891029 0 0 0
170 1 7.413780283932521 24.93281648420511 3.674988184465017 0 0 0
249 1 12.628681823895025 21.07571413433272 81.33673142646583 0 0 -1
7838 1 8.997207230442354 26.75532481454902 -0.31147602511670497 1 0 1
175 1 17.172361346567612 20.370533162322886 4.285478561809749 0 0 0
1010 1 15.599029050542697 21.902201048935137 81.199120526993 0 0 -1
374 1 16.174441304671667 24.794020831335544 0.23035260644066924 0 0 0
215 1 14.967517641670883 22.53676451411201 3.3651650676820535 0 0 0
180 1 14.015878652018946 20.626893826967457 1.7241686387144695 0 0 0
7903 1 18.336776465815554 24.64794148203108 1.3708641980904381 0 0 1
700 1 15.76642135745217 25.459057748337703 2.9606606101221784 0 0 0
7491 1 18.023309544599034 23.698226752091063 3.8866703002948304 0 0 1
7375 1 16.02154840055049 26.547727425485512 80.73903318090744 0 0 0
697 1 13.91012378326945 23.770625569595225 5.28402133842016 0 0 0
1022 1 18.94977792222922 21.73632463963117 2.5405253241622145 0 0 0
624 1 13.290243595221526 26.570227224808676 4.7448479614407395 0 0 0
663 1 20.36591175616985 24.911119945859664 3.174412326208011 0 0 0
703 1 21.106386177939036 23.38911203756718 4.9788851777641145 0 0 0
7463 1 20.76711735227637 26.128203040146776 0.9284432816117015 0 0 1
657 1 18.578437302457186 27.005785531697867 4.669477734300628 0 0 0
702 1 18.21719380323412 26.755072748158607 -0.5540524505967839 0 0 0
255 1 21.454045792093925 23.41005068754074 1.132107289423592 0 0 0
627 1 28.69681975528422 20.217080449784103 4.275718384720001 0 0 0
184 1 20.611405079775835 21.42634303968021 0.6070338895562665 0 0 0
588 1 21.51989849476082 20.254470931313303 2.704402306114665 0 0 0
267 1 23.76267571019409 19.611189916883426 1.8580229481478343 0 0 0
578 1 24.217371435944337 23.569123885065473 0.5416898362518454 0 0 0
622 1 25.3766191576537 21.282225717698825 -0.5104929155169574 0 0 0
665 1 26.185876558817526 24.768594250674994 2.5732221973266953 0 0 0
669 1 25.448523435649054 22.035502851689856 2.169614414428339 0 0 0
1067 1 23.716013248089595 25.846071727235877 1.377807528998706 0 0 0
582 1 25.868273626759667 25.650832270607257 0.17584244497142015 0 0 0
667 1 23.345971841675865 24.00277573141266 2.9849187625370104 0 0 0
350 1 26.864829576347816 27.833576423549772 0.37971013851132207 0 0 0
670 1 28.709225408123544 25.020888759336366 4.774604670636601 0 0 0
662 1 25.8215585612699 25.69541261700775 5.192425272532976 0 0 0
1026 1 26.069063649315986 22.836882456038897 4.704616479844641 0 0 0
661 1 22.979011803282102 20.6465324312337 81.6187802344726 0 0 -1
6700 1 22.721503460575764 25.07096754527167 81.09685258439133 0 0 0
634 1 34.05363665684514 21.593536314068416 4.022421756397116 0 0 0
592 1 28.117603212592982 20.577253634780774 0.7827366086799072 0 0 0
625 1 28.274727130541457 22.560149607716465 3.229238348259729 0 0 0
626 1 30.169069681608217 21.380286297794175 2.131960407289062 0 0 0
1073 1 30.532971066589376 24.268247149360654 80.30921135891019 0 0 -1
231 1 32.43272693821419 22.316271953819783 2.118036351264698 0 0 0
1071 1 29.898930245777454 24.065801821910508 1.3480363754833007 0 0 0
712 1 28.453158554263798 25.84954122133926 1.7179081681368664 0 0 0
1029 1 30.493633827164075 22.24468563060913 4.564593522493924 0 0 0
1069 1 27.717168503003865 23.339543669519013 0.39025485698236384 0 0 0
713 1 32.99787535698109 24.99060122009163 1.6192446491274672 0 0 0
709 1 31.055140459706564 26.930821653107802 2.1577452012421916 0 0 0
745 1 30.32486098061058 27.121273914269345 4.7131917096616744 0 0 0
274 1 31.244896808772125 24.538874305398203 3.7123662292923854 0 0 0
711 1 33.066763464292734 26.672553443122844 3.735468626373223 0 0 0
7432 1 32.95747011443271 26.226194373677178 81.59623179907484 0 0 0
589 1 27.980314292777415 21.928594148156616 80.5029091007074 0 0 -1
671 1 28.342482219792963 25.651063660618902 80.78349587177952 0 0 -1
639 1 0.7253245404971657 25.556892529192332 80.04326637058358 1 0 -1
7595 1 36.64263477205833 22.352260085938266 81.12702100191434 0 1 0
638 1 38.78319425364865 24.088418893585864 81.57089867727763 0 0 -1
715 1 34.06618205232618 24.31863527202797 3.8893455493285067 0 0 0
1074 1 32.18447375190788 23.288947005203674 -0.3133092209434571 0 0 0
640 1 35.029842007961484 22.864067035802435 1.8126606047886789 0 0 0
244 1 36.164016859112074 25.21283053275843 2.0811942171132625 -1 0 0
1117 1 34.66944792959252 23.995368902894064 80.71614733096308 0 0 -1
1114 1 37.39282505243061 26.996473880009564 3.2857197946903876 0 0 0
719 1 38.75766066699508 21.326058096611707 -0.09741999748359875 0 0 0
314 1 39.00278438449694 24.94474424790641 1.6589284763056298 0 0 0
1044 1 36.46011188402316 20.571233577507332 2.690689658179907 -1 0 0
359 1 0.33075832981380304 20.121521741598617 0.44511332285221006 1 0 0
315 1 36.073908821559634 26.08293854228789 -0.4948567733878898 0 0 0
1079 1 -0.15349430855027527 22.905904862370594 5.0128049479257015 1 0 0
1080 1 36.97533691710288 21.877465835351636 4.750395564851715 0 0 0
1478 1 37.685176989900405 22.70880428358759 1.571849303874602 0 0 0
7685 1 40.326458876036064 27.647316255854214 2.735427130732945 -1 -1 1
280 1 39.36967067167497 26.341295101276543 80.47474240005961 0 0 -1
684 1 0.04661936113834742 26.536482673880847 0.8249171651383767 0 0 0
1042 1 4.943368720134472 27.684568015071374 3.6208662039857247 0 0 0
604 1 0.06116254543446226 28.38480926526339 81.09619636829902 0 0 -1
7968 1 1.3218158016930543 31.75283456132938 0.5339500729634201 0 0 1
7884 1 2.442197401742809 28.228409450068323 1.7728506723609028 0 0 1
7808 1 7.713109038770239 28.81196106649186 3.2418573527112344 0 0 1
685 1 2.318843223451086 29.6103719864851 4.256298857170902 0 0 0
683 1 4.801228788734439 29.764699112690366 2.480166478250513 0 0 0
1121 1 0.1585281373107522 29.78534790105855 1.578591698586703 0 0 0
371 1 2.4021249362314077 31.83613193739371 5.787704239157867 0 0 0