LAMMPS data file via write_data, version 7 Feb 2024, timestep = 6500, units = metal

864 atoms
1 atom types

-0.3091902344669446 24.555190234467112 xlo xhi
-0.3091902344669446 24.555190234467112 ylo yhi
-0.3091902344669446 24.555190234467112 zlo zhi

Masses

1 26.982

Atoms # atomic

8 1 3.8601340679299216 1.3202019391921116 1.8499493618849265 0 0 0
27 1 1.840250407610251 3.746370423165782 1.77797327330999 0 0 0
146 1 1.7032333905011972 1.8481127859494801 3.852741589174409 0 0 0
173 1 3.883649340788235 3.6841846936964258 3.692303907770933 0 0 0
171 1 1.7729220471328246 3.97677291544875 6.005828520213519 0 0 0
169 1 24.32883591063328 4.515501433631617 3.774848445018965 -1 0 0
32 1 3.984699247754069 5.782234922163517 1.9530419401060204 0 0 0
3 1 1.7823083788419796 24.546083374782196 2.064176075710765 0 -1 0
150 1 5.861772160315628 1.7691771049054448 4.013659937053967 0 0 0
4 1 -0.2629865023866387 1.6610181048029797 1.7505366735526513 0 0 0
149 1 3.8745718323849943 -0.13966487009098957 3.990523960352119 0 0 0
29 1 3.629174120142339 3.5003007066821996 -0.05039763885454457 0 0 0
6 1 5.94666125728209 1.8278749538661523 24.44199280807195 0 0 -1
25 1 -0.18235613232487627 3.35825788580685 -0.270155899431181 0 0 0
174 1 6.305456766757 5.768911452497377 3.828631381938245 0 0 0
12 1 7.790185099775021 1.7315519449307581 1.750779511057027 0 0 0
31 1 5.825923605774945 3.5755698085938037 1.6926415854374324 0 0 0
35 1 10.033100884240648 3.669927707256408 2.011370012364361 0 0 0
154 1 9.921610214583955 1.5411825520464126 3.904677357784724 0 0 0
177 1 7.853644730728863 3.614545818123814 3.9139290070612187 0 0 0
157 1 12.607373802482048 24.441825279281126 3.7910452849944543 0 -1 0
178 1 10.11607362323058 5.952994415518918 3.4938393579507374 0 0 0
11 1 9.812587060948148 -0.24679615192410154 1.951750195756306 0 0 0
155 1 10.14989188276811 -0.15138370338355855 6.034948211838702 0 0 0
10 1 10.087199383407697 1.604790324916456 -0.1619255087004723 0 0 0
33 1 8.193973105804876 3.867031038925669 -0.09736570776416648 0 0 0
9 1 8.171532894707987 24.275053652419537 -0.11892908660596646 0 -1 0
16 1 11.992181652801927 1.710352229111018 2.000086413608091 0 0 0
181 1 12.226819818932599 3.7456684151791153 3.97118640122598 0 0 0
40 1 12.177201861134309 5.6995862759026705 1.8159079995481746 0 0 0
20 1 16.154810160280036 1.5553426662499394 1.7842575757625143 0 0 0
39 1 14.075212946721546 3.910509865201183 1.6266283061432976 0 0 0
43 1 18.401547302825847 3.852283291963605 1.9266493352954002 0 0 0
158 1 14.149158877592848 1.9238891301761458 3.495341792795134 0 0 0
185 1 16.138174307769603 3.9562531412570427 3.5327774804628227 0 0 0
44 1 16.334066637765112 6.200062779954722 1.7810565911143024 0 0 0
184 1 12.094555207824136 6.142653475096642 6.013507652746786 0 0 0
163 1 18.367088141358465 24.49815702488504 5.972948892639522 0 -1 0
42 1 18.190683380240735 5.77063457024742 -0.2593574952855491 0 0 0
162 1 18.337522840203818 1.635906985650635 3.625976837744688 0 0 0
145 1 24.170197217350427 -0.21166003857112578 3.9508712628755314 -1 0 0
18 1 18.346688315305613 1.9333431167891817 -0.24326314247228667 0 0 0
24 1 20.43110008478098 1.8972959823035835 1.4509462221587113 0 0 0
47 1 22.36922853268087 3.9124481219633847 1.8986091210530711 0 0 0
166 1 22.51058428721496 2.092718699101665 3.7144730252642884 0 0 0
189 1 20.37482893806589 4.038273163527694 3.9006002774635613 0 0 0
187 1 17.977663631658665 3.842672659590038 6.116379293135026 0 0 0
192 1 20.043737178414133 6.092556917698953 5.9241671119639525 0 0 0
45 1 20.488474416529094 3.8641722527942406 24.50456400997926 0 0 -1
170 1 1.9182736211654432 5.932535922459898 3.8932503323171126 0 0 0
28 1 24.526135716936558 5.917134272892493 1.499147589124094 -1 0 0
176 1 3.8041811710207973 6.140013345563395 5.812995805677077 0 0 0
51 1 1.7759996677949044 8.251451498287977 1.51959313180177 0 0 0
52 1 24.550762870564487 9.990524392822026 1.7504378425918774 -1 0 0
56 1 3.7367335462233955 9.955622772269802 1.9059689153413713 0 0 0
193 1 24.38414521129551 7.661674190198043 3.6393380292090622 -1 0 0
194 1 1.852075288034067 10.182945855742423 3.9860581865498403 0 0 0
197 1 3.9201389243658644 7.836649634972428 3.703967596285267 0 0 0
198 1 5.920741606731031 9.85474747688066 3.6401442853669406 0 0 0
75 1 1.795535074043484 12.16197998589849 1.7337863882775202 0 0 0
53 1 3.859940688768825 8.104982420659331 -0.05433283022905755 0 0 0
55 1 5.868183015652911 7.672426192758534 1.7091432780620734 0 0 0
77 1 3.864810358176385 11.995465035071478 24.52142327169042 0 0 -1
36 1 8.017345762158225 5.958410119646379 1.6904666734285854 0 0 0
59 1 9.670502164454284 7.8441375801910525 1.6820495480884299 0 0 0
60 1 8.35657189209833 10.218814624014868 1.6096459664528606 0 0 0
201 1 7.983747370688127 8.197202394594626 3.8714544832391633 0 0 0
202 1 9.956231021352425 10.09750853388145 4.150148018270088 0 0 0
203 1 9.903754988823355 7.891227773966584 5.880843504709338 0 0 0
79 1 5.942837333631358 11.750113813556965 1.8219175765001712 0 0 0
225 1 7.624081998054299 12.286662552928874 4.163905786617404 0 0 0
83 1 9.88170612479629 12.592900489537227 2.04657042534462 0 0 0
180 1 7.8496820575333786 6.0002595375806305 5.749532472276148 0 0 0
208 1 11.818709150271985 9.921827509633431 5.853878376257944 0 0 0
204 1 7.750292003955751 10.26712912913272 5.978622690906607 0 0 0
30 1 5.5628940092355785 5.67460373032007 -0.2232046717683147 0 0 0
186 1 18.078079264358195 5.799908589350084 3.8501635823933533 0 0 0
64 1 11.739188441858317 9.894845393463235 1.6019887869981266 0 0 0
38 1 14.019391266506293 5.993481211191777 24.295913238196494 0 0 -1
182 1 14.247877446182358 6.041962929841299 3.718404021504022 0 0 0
63 1 13.888883801919123 8.081857574154682 2.0037635740165363 0 0 0
68 1 16.098600587982638 10.19031166695111 2.1213040202704074 0 0 0
205 1 11.760909647768479 8.176994977842968 3.5935626551648143 0 0 0
206 1 14.030143185263531 10.1966078748489 4.1595805471152785 0 0 0
209 1 16.325642856956023 7.911365642808718 3.8788878284767394 0 0 0
207 1 14.198133763242685 7.91468354748068 5.623156982267615 0 0 0
67 1 18.084184233639768 8.26688911747781 1.4378436254473326 0 0 0
233 1 16.27599245648939 12.480183875163792 3.816358449435435 0 0 0
231 1 14.019477470581782 12.257362764506667 6.138356457248334 0 0 0
48 1 20.05521097952299 6.092385217023745 1.9304003798079004 0 0 0
210 1 18.157361849285365 10.042392426150741 3.8530067821211436 0 0 0
190 1 22.2744571086132 6.13006345970344 3.736722041823354 0 0 0
71 1 22.628578901040896 8.21346730842794 1.7013767025972637 0 0 0
72 1 20.19515513962005 10.282951855065296 1.87160803402754 0 0 0
213 1 20.32635407248884 8.21858206298173 3.958005819062296 0 0 0
214 1 22.421637888976655 10.077747273659806 3.7783100463286052 0 0 0
95 1 22.65441030717347 12.308825866639014 1.909308809848242 0 0 0
91 1 18.255143954112064 12.11310577267501 1.6348045206199397 0 0 0
196 1 -0.10883768888267287 9.825321886890059 5.802685307134175 0 0 0
221 1 3.918301213677502 12.17430445441368 3.8904611708919097 0 0 0
74 1 1.8566202420869167 14.207883720422815 -0.1345034746792849 0 0 0
80 1 3.8899344175881163 13.855777740110417 1.7641017132504553 0 0 0
99 1 2.094338320558839 16.24118820339138 1.6561507641212416 0 0 0
218 1 2.016233548827715 14.379838267343725 3.824971095687422 0 0 0
245 1 4.071943938204927 16.449388650264822 3.743354835294495 0 0 0
241 1 -0.28305904475948296 15.987684047757886 3.795047906355049 0 0 0
103 1 5.787168467624383 16.338457638286044 1.7302605898516017 0 0 0
104 1 3.769998967211401 18.239782113487117 1.8702677610734928 0 0 0
224 1 3.701616893274415 14.297734601842723 6.177255088927558 0 0 0
247 1 5.876282080362036 16.43444793039567 6.0806415695411085 0 0 0
84 1 7.829850260123873 14.446120974669363 2.159299125342361 0 0 0
107 1 10.026241335197888 16.30742327753667 1.9467717355798446 0 0 0
108 1 8.20726240332708 18.32120804351168 1.9290910452178838 0 0 0
222 1 5.764538703491747 14.024088518894557 3.8786963160949366 0 0 0
226 1 9.638593417957708 14.208515555050601 4.27910022093054 0 0 0
249 1 7.511373887863525 16.81659833724739 3.858680696863992 0 0 0
251 1 10.062669300913042 16.53019719219855 6.024684569297942 0 0 0
88 1 12.478452718961336 14.207160922042524 1.690497018228289 0 0 0
229 1 12.018866989622547 12.093811294438662 3.7703221671337825 0 0 0
82 1 9.901402102087614 14.269557949698966 -0.03237123811519638 0 0 0
112 1 12.013942360432468 18.540951578706952 1.624702531752917 0 0 0
253 1 12.043920228548574 16.261061148626574 3.6691758505179775 0 0 0
256 1 12.34195159406536 18.15974824991074 5.90539521287779 0 0 0
250 1 9.977950007164523 18.316204918306134 3.8167150827026353 0 0 0
228 1 7.523666169921283 14.66559717132563 6.323444486994561 0 0 0
252 1 8.235280942638115 18.375494293166398 6.144172425264139 0 0 0
106 1 9.937785802474226 18.59859104728674 24.393860072616803 0 0 -1
89 1 15.926166232684638 11.869670077158537 -0.14886667790626973 0 0 0
87 1 14.057660512074161 12.074040644966367 1.7721152228229178 0 0 0
92 1 15.945010693682123 14.252191613409396 1.8302109905139798 0 0 0
111 1 14.185864111904774 16.281573018550425 1.7605503333198071 0 0 0
230 1 14.06712104128405 14.181646936955755 4.110276367159965 0 0 0
257 1 16.25887289120763 16.317604851760095 4.005687805944992 0 0 0
116 1 16.278189044957053 18.376242380602463 1.60248762633183 0 0 0
254 1 14.354834858252161 18.193576569364055 3.83071746422155 0 0 0
110 1 14.067170076038117 18.447632201335736 24.25491638065993 0 0 -1
113 1 16.330048296072476 16.02882707500048 24.50493872186451 0 0 -1
115 1 18.23227757519114 16.29533291315404 1.8477366329459035 0 0 0
258 1 18.4070303433718 18.353358203021983 3.746820934409273 0 0 0
236 1 16.22855725382714 14.003639169283588 6.441640379244181 0 0 0
255 1 14.118227560430704 16.22215338419344 6.044339189884239 0 0 0
109 1 12.005539635624759 16.574553205383587 -0.09908272292163961 0 0 0
237 1 20.15762648474241 12.239079382998224 4.047043801089232 0 0 0
217 1 -0.2714552187421105 12.145887528601667 3.9279439394083084 0 0 0
76 1 -0.14710693819044482 14.338483771792019 1.6882101968017027 0 0 0
234 1 18.35255128463961 14.356605403759408 3.8886408632394858 0 0 0
96 1 20.405992195283858 14.160298922250949 1.8046563256658188 0 0 0
119 1 22.19497952715402 16.280188206876304 1.6788747798809402 0 0 0
238 1 22.46371677444867 14.040647398038871 3.8718960282025927 0 0 0
261 1 20.45624915015521 16.20852212075937 3.81286695970119 0 0 0
263 1 22.660285060043492 16.173337093107634 6.06990715261644 0 0 0
114 1 18.440664835996095 18.104425227167965 -0.2569087720149642 0 0 0
262 1 22.64425698811297 18.161949697886207 3.922037113325965 0 0 0
7 1 5.938377236335297 24.525546469289438 1.50421902752944 0 -1 0
242 1 1.6133734888788793 18.036915110297834 3.6535614218420234 0 0 0
123 1 1.4148123885007997 20.212094696911606 1.7815031579217964 0 0 0
124 1 -0.2577645316875561 22.17240358619273 1.5062716694124638 0 0 0
128 1 3.545889791672704 22.636457333401232 1.7472345406464598 0 0 0
266 1 1.3439440330334904 22.737087894269536 3.886557907887342 0 0 0
269 1 3.6813613261499674 20.506951480498806 3.3908109197151726 0 0 0
267 1 1.8997621684570158 20.384531321970044 5.975844443665692 0 0 0
127 1 5.889582755568494 20.47158993908846 1.7527561653961676 0 0 0
100 1 24.39870839392569 17.854101147419982 1.7632793113021017 -1 0 0
147 1 1.3998549601363122 -0.20650994520757632 5.807190553022535 0 0 0
272 1 3.6348174602655066 22.624843522821287 5.531644580314297 0 0 0
268 1 -0.3087709464505224 22.294384487628726 5.925130724749409 0 0 0
1 1 -0.21200743195909827 24.415153913781467 24.276035264816052 0 -1 -1
5 1 3.8160790882655844 24.35452375348286 24.48824571084134 0 -1 -1
153 1 7.879930672145051 24.547134867552366 4.04371312033534 0 -1 0
126 1 5.643652093448769 22.617634832848978 24.36577115758498 0 0 -1
270 1 5.84761495344263 22.769074471846046 3.602200323274998 0 0 0
246 1 5.843938435593443 18.817724750852356 4.012748296064829 0 0 0
131 1 10.08598473028586 20.408254497957586 1.7469160345417238 0 0 0
132 1 7.863027796681445 22.48185582318407 1.8580913745735042 0 0 0
273 1 8.076842090721582 20.503341250325946 3.8028214297671594 0 0 0
274 1 10.395103838015286 22.652568175998326 3.776089330954103 0 0 0
275 1 10.016684566656359 20.34157564342926 6.0041935002204605 0 0 0
136 1 12.075661804533043 22.48192022825947 1.6044354645707237 0 0 0
280 1 12.287989376057782 22.659966086307456 5.882997946913804 0 0 0
129 1 7.841449966799182 20.775190183583256 24.534151554156203 0 0 -1
15 1 14.470010075106615 24.476010108343594 1.7625611829372465 0 -1 0
161 1 16.293859403745394 24.548804685453064 3.918301756480955 0 -1 0
277 1 12.425563110931625 20.322335101483134 3.856020785186332 0 0 0
135 1 14.250225132951652 20.41697160408477 1.3394388128149817 0 0 0
140 1 16.418907479618454 22.107001704839625 1.3295423084056355 0 0 0
278 1 14.399886652667593 22.225806401867793 3.58233293005293 0 0 0
281 1 16.48317322613292 20.40964536831335 3.547505093376209 0 0 0
279 1 14.314018837744205 20.491572073477705 5.879075629237403 0 0 0
137 1 16.375488490110833 20.211318642166965 24.425014086324353 0 0 -1
282 1 18.590483710836317 22.62251614116773 3.9492118995642818 0 0 0
17 1 16.52438688625687 24.267488316035006 24.408629862978977 0 -1 -1
19 1 18.39178034996197 24.352058504147095 1.4653426317093223 0 -1 0
165 1 20.65567504690445 -0.11949215373525135 3.881954121054841 0 0 0
265 1 24.401963237041414 20.315696459641636 3.9602899285956434 -1 0 0
139 1 18.559092644522003 20.410624391221262 1.8059260162488986 0 0 0
23 1 22.71733957907005 24.424264887235793 1.271848598647719 0 -1 0
120 1 20.591943255966868 18.28868042815371 1.8429091826458621 0 0 0
143 1 22.553067455165397 20.221756608236085 1.8568271102834752 0 0 0
144 1 20.605228281865237 22.61011791869054 1.7335248098084208 0 0 0
285 1 20.412480239703264 20.37252022935583 3.8669040269225254 0 0 0
286 1 22.680656920459263 22.278154611200783 3.9636840662642516 0 0 0
138 1 18.343439377587067 22.38105595506496 24.50092776133799 0 0 -1
142 1 22.458039400553226 22.33793610510064 24.523031153351535 0 0 -1
288 1 20.38444751423782 22.482314834044423 5.932996393355871 0 0 0
148 1 24.423398071891334 2.0652221969350575 5.613353555195042 -1 0 0
152 1 3.6341347730798965 1.4894496126930272 5.896378507894049 0 0 0
290 1 1.2882968344778738 1.7473320481932544 7.872680337784498 0 0 0
296 1 3.6607956725263406 1.863778157277657 9.951232130026158 0 0 0
313 1 -0.29785620388107686 3.9010845831879504 7.908183297359203 0 0 0
315 1 1.94806315283441 3.9686224772210066 10.19989977985002 0 0 0
317 1 3.675695119166809 3.606973338037227 7.837465239601682 0 0 0
461 1 3.9641414649240474 3.77853540247641 12.446225423419026 0 0 0
319 1 5.7018528962318324 3.8562755714075427 10.209299926586072 0 0 0
292 1 -0.1043358481926191 2.133955538251436 9.935393568159235 0 0 0
289 1 24.28580771816752 -0.04214491324233782 7.8420581406162935 -1 0 0
438 1 5.694574883401192 1.611446577630282 12.170470909877478 0 0 0
156 1 7.968763323979024 1.5315643564421544 6.053320043013273 0 0 0
160 1 12.11594644605658 1.9291413572004341 6.178807337145523 0 0 0
175 1 5.651494547531359 3.9473886713286017 6.065816685073264 0 0 0
179 1 10.093163366306166 3.8803949110896525 5.451776596506148 0 0 0
294 1 5.784291593495647 1.8690990670508403 8.035237017205587 0 0 0
297 1 8.079216956914218 -0.22479117065196874 7.960936161296514 0 0 0
298 1 9.925887675263168 1.9335294724021117 8.013922894445258 0 0 0
300 1 7.672022998576321 1.9382807910559432 9.945768176720826 0 0 0
321 1 7.728435153571519 3.8669360296508968 7.581401517248406 0 0 0
323 1 9.928021998008738 3.8695486145678775 9.864776603399786 0 0 0
304 1 12.241968294802348 1.7436216528424686 10.166739273984055 0 0 0
322 1 9.930733054656743 5.887744865889787 7.992330529050564 0 0 0
324 1 8.105414588571147 6.117617408350352 10.095411006478425 0 0 0
183 1 14.30585435751334 3.927867192243059 5.787476159039867 0 0 0
188 1 16.230674688001898 6.059666512038852 5.999485764516771 0 0 0
164 1 16.575820246133922 1.691506031034959 5.897733733327181 0 0 0
302 1 14.405292254527057 1.7592302727081561 8.092037136776764 0 0 0
308 1 16.34279954948758 2.0740748061707444 10.116051502600307 0 0 0
325 1 12.058001333807761 4.05113779958731 8.260215495656142 0 0 0
327 1 14.16154727041264 3.654242074678873 10.450305495429735 0 0 0
329 1 15.769802319649246 3.9927007804870467 8.002936097242253 0 0 0
331 1 18.576882508912334 3.852030693303867 10.039688541058283 0 0 0
446 1 14.403086576691553 1.501784654945901 12.28058867481956 0 0 0
328 1 11.991616751867214 5.838118256105671 10.08582881903294 0 0 0
326 1 13.979728432943368 6.002483592469501 8.090148099502661 0 0 0
474 1 18.132644783556287 6.253743747406024 12.01722341912607 0 0 0
330 1 18.224153541240142 6.2494284042256405 7.998078526679562 0 0 0
469 1 11.948749571342736 3.8923286410165794 12.234731222881738 0 0 0
191 1 22.420817718107692 4.256888319498991 5.829156853126607 0 0 0
306 1 18.33837735145228 1.5729693823751418 8.149918972158453 0 0 0
168 1 20.38245762914621 2.0806966949533208 5.759430935495897 0 0 0
310 1 22.24629728854373 2.1024330964128994 8.187994061842476 0 0 0
312 1 20.16495215058106 1.7336283059451079 10.199226346492837 0 0 0
333 1 20.181042176722322 3.9901208865761726 7.824521145657435 0 0 0
335 1 22.180545061183096 3.9616005573515354 9.936688585973956 0 0 0
334 1 22.657101493934498 6.2132528727810445 7.911746029575134 0 0 0
336 1 20.438570274938314 6.235308303701389 9.953065347185131 0 0 0
172 1 -0.25681557390626936 6.145250364414983 6.007285558630027 0 0 0
477 1 20.427957554861386 3.914376405925859 12.1819442157633 0 0 0
200 1 3.9038202350646234 10.005446492580289 5.839362229690939 0 0 0
195 1 1.8756398272496044 8.013754909784149 5.844986780938702 0 0 0
199 1 5.787294642997186 7.829094237151098 6.172104282246123 0 0 0
219 1 1.751173265521504 12.238366315525427 5.688097438484231 0 0 0
316 1 24.153838676826922 5.804620075100205 10.050604105811974 -1 0 0
320 1 3.829154391072054 5.739472363799042 9.976911654368568 0 0 0
314 1 1.7235899586666688 5.771016603092677 8.123913338496992 0 0 0
338 1 1.772841686937507 10.20285217701271 7.794952713047024 0 0 0
339 1 1.6497839123289788 7.751408161163077 10.091084914922389 0 0 0
340 1 24.499550062625573 10.335024075469343 10.020942305102254 -1 0 0
341 1 3.9431750364605618 7.92741994619505 7.873230933280876 0 0 0
344 1 3.714191656744779 9.928641667129966 9.967371744713008 0 0 0
342 1 5.524315051940754 9.84044494637039 8.11732976137173 0 0 0
337 1 0.3118365104898899 8.096537036879903 7.9214623105662 0 0 0
223 1 5.911179744715677 12.163416890121074 5.92500143848134 0 0 0
482 1 1.855806378997729 10.034244957727166 11.914870541996525 0 0 0
363 1 1.707042311412596 12.206405235672644 10.067738454847483 0 0 0
361 1 24.4517999444584 12.120841600924884 7.94100008507737 -1 0 0
486 1 5.858893891914315 9.83140564827706 12.025307883582215 0 0 0
318 1 5.678103458169867 5.937165193768333 8.140785929259275 0 0 0
343 1 5.79590460106742 7.837420801322198 9.975140536586256 0 0 0
345 1 7.98954119911232 8.01470669005921 7.701335387262329 0 0 0
346 1 10.123137951990898 10.107982326787525 7.772043022396774 0 0 0
347 1 10.364185954572417 7.951426886622887 9.953110325019217 0 0 0
348 1 7.969848692848352 9.900941688361932 9.640997673290293 0 0 0
369 1 7.799855623373174 12.03550427438506 8.227652661216965 0 0 0
352 1 12.19891734370813 10.013491671274672 10.177553846740773 0 0 0
489 1 8.048311315717134 8.186743889061612 11.676466717004507 0 0 0
513 1 7.75034029824813 11.876966599182818 11.992726699136131 0 0 0
212 1 16.09036430775607 10.212303841346104 5.974418970037257 0 0 0
235 1 18.178797615429474 11.92303916137706 6.077984155824427 0 0 0
332 1 16.172271835819906 5.983783560120378 9.652343009937068 0 0 0
373 1 12.249433404632896 11.899830109841837 8.15787162908882 0 0 0
349 1 12.04705802226206 7.972080341483755 7.911900897378784 0 0 0
350 1 14.084378385901916 9.936668718143233 8.105026492697393 0 0 0
351 1 14.265705696229748 7.954892175246249 10.09815226059227 0 0 0
353 1 16.115693155044227 7.905589671716587 7.6606561326538705 0 0 0
356 1 16.212373110953287 10.211816807135405 10.009842401807985 0 0 0
354 1 18.477928694342758 9.911470887075641 8.08111419964897 0 0 0
355 1 17.931002606993438 8.011912371611583 10.071546507189302 0 0 0
379 1 18.19801049369009 11.944068578859817 9.956146029712318 0 0 0
215 1 22.47074750007293 8.239497174507877 6.12985962189814 0 0 0
211 1 18.273481547716848 8.231744519688473 5.791376153871784 0 0 0
216 1 20.454060134199096 10.386317311930394 6.024521882857354 0 0 0
478 1 22.670931746423257 5.65794017248621 12.275684763927583 0 0 0
357 1 20.480475071359585 7.933484749271777 7.971350627047045 0 0 0
358 1 22.669428321777602 10.064657326884433 8.016906250347674 0 0 0
359 1 22.336842758083307 7.928376006792343 10.076222496920767 0 0 0
360 1 20.199267434154727 9.775571254192078 10.030723487671592 0 0 0
501 1 20.33227120760168 7.993914366994199 11.978308934602099 0 0 0
525 1 20.345396892356703 11.879678860093588 11.895909705353759 0 0 0
243 1 1.7192203718869394 16.36435471490725 5.933677232484399 0 0 0
220 1 -0.15311071203280818 14.313179050051657 6.000159645606711 0 0 0
365 1 3.7619066326008044 12.167794721749477 8.0494133778364 0 0 0
367 1 5.666013166612349 12.036300847335081 10.174693440130403 0 0 0
248 1 3.7349776183284487 18.36706950316639 5.844264133276148 0 0 0
362 1 1.8014388753715251 14.421894579045274 8.060596207235452 0 0 0
368 1 3.8324596258883465 14.245019594942352 10.102052270626825 0 0 0
387 1 1.9195947014998436 16.31614640401868 10.256423602624722 0 0 0
389 1 3.9636189595764044 16.43680747489246 8.351607338486902 0 0 0
533 1 4.090994304713242 16.228894809907608 11.889382617287449 0 0 0
366 1 5.731498671594813 14.052528725134138 8.154184472304065 0 0 0
364 1 -0.09125619760131087 14.142451141692895 10.174152195636143 0 0 0
385 1 -0.09352985757643942 16.50398903114769 8.055003436033367 0 0 0
388 1 24.448263771355222 18.38690905590225 10.212654070986037 -1 0 0
386 1 1.7767767295165262 18.675830218218472 8.196654794364914 0 0 0
509 1 3.7436006028988613 12.14985500007033 12.18591296411277 0 0 0
529 1 24.38997846140439 16.310537918266533 12.066752325915303 -1 0 0
227 1 10.106135174732675 12.331399416680625 6.097011067581837 0 0 0
510 1 5.876172694552881 13.971261368136084 12.088798515210373 0 0 0
391 1 6.034518468504489 16.241027005518035 10.192386137377898 0 0 0
371 1 9.940093509528515 12.264542712758903 9.81336674876174 0 0 0
370 1 10.026567296972724 14.54739065813426 8.085374382364726 0 0 0
372 1 7.934256493562158 14.017113901221547 10.122731729058254 0 0 0
393 1 7.748939636790901 16.2536159966805 8.428634653837355 0 0 0
395 1 10.313448452365002 16.3649032482464 10.15609415132502 0 0 0
376 1 12.126958943237993 14.15707313111389 10.255823790098376 0 0 0
397 1 12.144999922050257 16.52376203755029 8.119322229774031 0 0 0
537 1 7.982587345235643 16.303092348732626 12.16429985410148 0 0 0
394 1 9.924860899033112 18.4249621864452 8.033260457307076 0 0 0
396 1 8.117635065166008 18.26611651734391 10.096915146190113 0 0 0
400 1 12.32037540513443 18.732311549098284 9.961595975849097 0 0 0
377 1 16.064797461081845 11.86135017528286 7.914958299489372 0 0 0
375 1 14.047617670962936 12.316051199956057 10.143462123354785 0 0 0
232 1 11.981281586770654 14.790578555426173 5.827766527383812 0 0 0
259 1 18.487295175700183 16.30723594399469 5.8605647033058945 0 0 0
374 1 13.896029071072594 14.184115666961578 8.014380220174049 0 0 0
380 1 16.206693176332678 14.100645398079086 9.919411511308557 0 0 0
399 1 14.044016959869307 16.23940562062308 10.23600107323787 0 0 0
401 1 16.32154868411849 15.880635021455221 8.093568774043113 0 0 0
378 1 18.479452102829505 13.81981354584102 7.84115947842465 0 0 0
398 1 14.474850269745827 18.425015924414453 8.084299321904918 0 0 0
521 1 16.301590061223756 12.324105902691393 12.051199486434955 0 0 0
545 1 16.40859024003222 16.14290082989273 12.34729068841952 0 0 0
542 1 14.173698286009119 18.273926353212204 12.04978837252661 0 0 0
239 1 22.52266990289523 12.047218577433998 6.0319096393800695 0 0 0
381 1 20.29552723815204 12.131124393591064 7.952255072067498 0 0 0
383 1 22.46615782477423 11.916980460414086 10.270293182716708 0 0 0
403 1 18.404198148213233 16.341206266402004 10.183819002281137 0 0 0
240 1 20.60360477437102 14.216899575194077 6.044796437941858 0 0 0
382 1 22.8901428932096 14.07581454906751 8.043375907569802 0 0 0
384 1 20.44534481898397 14.108569192866748 10.147219498164333 0 0 0
405 1 20.522281602785363 16.181864987152828 7.926225007096802 0 0 0
407 1 22.29880760988749 16.270410651964717 9.962518156976023 0 0 0
549 1 20.476542242922683 16.087460159371346 11.99704087651389 0 0 0
264 1 20.162827272347243 18.29967847960792 5.989158205506126 0 0 0
406 1 22.45404793855169 18.375817553670146 8.160110643899566 0 0 0
244 1 -0.2419711720325779 18.332120976172654 6.140195859047096 0 0 0
526 1 22.561568237898875 14.049696637112284 12.051104889850116 0 0 0
550 1 22.543195631243506 18.323983906676133 12.211192269756047 0 0 0
151 1 5.746053147820085 24.475381143537113 6.146427174128074 0 -1 0
291 1 1.6839193911519854 24.215898137317787 10.015355674658073 0 -1 0
293 1 3.752257121686318 -0.299148369693532 7.955211583434714 0 0 0
392 1 3.8283917479517884 18.57219229260457 9.917542145026044 0 0 0
410 1 1.923623148326115 22.44405369152671 7.9607903997986345 0 0 0
411 1 2.07341174474529 20.691222994921773 10.138642561399633 0 0 0
412 1 24.34770504422125 22.827758937091545 10.24913285665704 -1 0 0
413 1 4.033793760684984 20.666527937333093 8.017153315749887 0 0 0
416 1 3.8534443332116606 22.564842731349565 10.141300527421123 0 0 0
415 1 6.229667078697798 20.329019117823037 10.098437194051826 0 0 0
437 1 3.860975494135511 -0.05962394517768024 11.80753923260543 0 0 0
554 1 1.5138832199799328 22.197157765010097 12.161639700947187 0 0 0
433 1 -0.08569661236908649 -0.1711077950080977 12.261544242264806 0 0 0
553 1 24.30428342077608 20.461475926104136 12.251503170760916 -1 0 0
276 1 8.151294479582544 22.553829960607096 5.990424293893589 0 0 0
295 1 6.006711632768405 -0.2598466615868956 9.836555222980909 0 0 0
301 1 12.346773579776254 24.54358132686877 8.045149035431892 0 -1 0
299 1 10.29253588656265 -0.05662567339924934 10.190847262310218 0 0 0
390 1 5.911485500314958 18.607016988305425 7.965133787354992 0 0 0
271 1 5.969888194272498 20.756568562571267 5.911810620130868 0 0 0
414 1 5.965337018560387 22.652291979768762 8.126290475015807 0 0 0
417 1 8.02505257419517 20.59066062450902 7.852369665852571 0 0 0
418 1 10.226117625192476 22.432565251118852 8.091482396965086 0 0 0
419 1 9.972149967331928 20.509777923531963 10.137036605863962 0 0 0
420 1 8.115454717256977 22.403001356789154 10.05729375906777 0 0 0
421 1 12.130593103732105 20.55529320964318 7.818124617453572 0 0 0
561 1 8.129976333652056 20.402476279757103 12.281916682081617 0 0 0
538 1 10.274397223636623 18.336723915049618 12.238366251902576 0 0 0
534 1 6.187202485554707 18.40124037929384 12.271244287276692 0 0 0
284 1 16.437474538748646 22.57609471216375 5.864217779081508 0 0 0
159 1 14.388455521114174 -0.12193139063148806 5.894600146137799 0 0 0
303 1 14.260440479205574 24.16914350378631 10.451159313718234 0 -1 0
307 1 18.53791748385354 24.266104338672314 10.08006000373031 0 -1 0
283 1 18.327529805124087 20.4947635373318 5.780321717573592 0 0 0
404 1 16.33809151319457 18.619699510246058 10.057367192998518 0 0 0
305 1 16.192653515104183 -0.2367993429370777 8.242912703660096 0 0 0
260 1 16.45934475973356 18.45773054079229 5.9013005038625 0 0 0
422 1 13.87702819794323 22.421435875765034 8.244511797936198 0 0 0
423 1 14.080909939021984 20.62058767385131 10.18517172311009 0 0 0
424 1 12.00469814544054 22.511912900127925 10.437282736616414 0 0 0
425 1 16.102353989386643 20.585489556030566 7.9429862197721075 0 0 0
428 1 16.321339406855806 22.559825795038087 10.060158970245592 0 0 0
565 1 12.127747193644678 20.62644218835539 12.27365390460103 0 0 0
566 1 14.387974134860722 22.357212433028508 12.485777539448677 0 0 0
569 1 16.379235267168156 20.38539224536222 12.253281911464233 0 0 0
287 1 22.463827131793366 20.219690558011926 6.178882178504359 0 0 0
309 1 20.338260274161712 -0.24459085832885155 7.935834630173021 0 0 0
311 1 22.637278048415467 -0.06622075106075159 10.050854980097249 0 0 0
453 1 20.56824362472866 -0.12972634891787327 12.413404869229538 0 0 0
402 1 18.559085783840104 18.488074364858505 8.050223623161205 0 0 0
426 1 18.30160635565357 22.46811613655575 7.79000110813025 0 0 0
427 1 18.501051932923964 20.673938324938057 10.371631299402791 0 0 0
167 1 22.417678817248813 0.13233090556972155 5.716619894861414 0 0 0
408 1 20.3866325453536 18.315006350803856 10.08165183471867 0 0 0
409 1 -0.11172831621269097 20.774591764068738 8.309408744573956 0 0 0
429 1 20.46684825293132 20.624720144650475 8.034110601442682 0 0 0
430 1 22.477343877650767 22.867684387539704 7.810510891675637 0 0 0
431 1 22.47285221158755 20.656602815875345 9.880877746011588 0 0 0
432 1 20.60470677437614 22.65073110282985 9.915311177041493 0 0 0
570 1 18.43869991340928 22.61137146884633 12.135311442324465 0 0 0
574 1 22.432144146263184 22.726197484701622 11.930309223792186 0 0 0
434 1 1.8940326645643362 1.7942083774322568 12.138497166671037 0 0 0
440 1 3.335968781296032 2.158094240184012 14.307247837304466 0 0 0
459 1 1.6060720659959904 4.20401850568823 14.058522285213057 0 0 0
578 1 1.5051670452549677 1.5714139141362011 16.603422534685826 0 0 0
603 1 2.0874696066017946 3.6405007404021728 18.40251029004081 0 0 0
605 1 3.94662197692874 3.9528013713356627 16.26507761875053 0 0 0
458 1 1.5924965671675015 6.006398212425737 12.034056672544795 0 0 0
435 1 2.0634590278560854 24.061616829128752 13.98950981816026 0 -1 0
577 1 -0.06211425857383146 24.43451526639489 16.30626688407071 0 -1 0
601 1 -0.2300551207908605 3.6035184428198854 16.70530465785169 0 0 0
581 1 3.8924404177125664 24.276741120448644 16.042525755591953 0 -1 0
579 1 2.1817029977478724 24.238317238130442 18.208824443866263 0 -1 0
442 1 10.084872026137031 1.9190752427757167 12.092646518888122 0 0 0