ITEM: TIMESTEP
6500
ITEM: NUMBER OF ATOMS
864
ITEM: BOX BOUNDS pp pp pp
-3.0919023446694460e-01 2.4555190234467112e+01
-3.0919023446694460e-01 2.4555190234467112e+01
-3.0919023446694460e-01 2.4555190234467112e+01
ITEM: ATOMS id type xs ys zs
8 1 0.167683 0.0655312 0.0868367
27 1 0.0864466 0.163107 0.0839419
146 1 0.080936 0.0867628 0.167385
173 1 0.168628 0.160606 0.160933
171 1 0.0837388 0.172374 0.253979
169 1 0.990896 0.19404 0.164253
32 1 0.172692 0.244986 0.0909828
3 1 0.0841163 0.999634 0.0954525
150 1 0.248185 0.0835881 0.173857
4 1 0.00185823 0.0792382 0.0828385
149 1 0.168263 0.006818 0.172927
29 1 0.158394 0.153211 0.0104082
6 1 0.251599 0.0859489 0.995447
25 1 0.00510104 0.147498 0.00156989
174 1 0.266029 0.24445 0.166416
12 1 0.325742 0.0820749 0.0828482
31 1 0.246743 0.156238 0.08051
35 1 0.415948 0.160033 0.0933287
154 1 0.411464 0.0744186 0.169474
177 1 0.328294 0.157806 0.169846
157 1 0.519481 0.995441 0.164904
178 1 0.419285 0.251854 0.152951
11 1 0.407079 0.00250938 0.0909309
155 1 0.420645 0.00634669 0.25515
10 1 0.418124 0.0769768 0.00592272
33 1 0.341982 0.16796 0.0085192
9 1 0.341079 0.988733 0.00765196
16 1 0.494739 0.0812223 0.0928749
181 1 0.504175 0.163079 0.172149
40 1 0.50218 0.241662 0.0854676
20 1 0.662152 0.0749881 0.0841946
39 1 0.578514 0.169709 0.0778551
43 1 0.752512 0.167367 0.0899214
158 1 0.581488 0.0898104 0.153011
185 1 0.661483 0.171548 0.154517
44 1 0.669361 0.26179 0.0840659
184 1 0.498856 0.259481 0.254287
163 1 0.751126 0.997706 0.252656
42 1 0.744031 0.244519 0.00200418
162 1 0.749937 0.0782283 0.158265
145 1 0.984516 0.00392249 0.171332
18 1 0.750305 0.0901906 0.00265147
24 1 0.834137 0.0887408 0.0707895
47 1 0.912085 0.169787 0.0887937
166 1 0.91777 0.0966004 0.161824
189 1 0.831873 0.174847 0.16931
187 1 0.735464 0.16698 0.258425
192 1 0.818558 0.257467 0.250694
45 1 0.836444 0.167845 0.997964
170 1 0.0895845 0.251031 0.169014
28 1 0.998831 0.250411 0.072728
176 1 0.165432 0.259375 0.246223
51 1 0.0838625 0.344293 0.0735503
52 1 0.999822 0.414236 0.0828345
56 1 0.16272 0.412832 0.0890897
193 1 0.993121 0.320574 0.158803
194 1 0.0869222 0.421975 0.172747
197 1 0.170096 0.327611 0.161402
198 1 0.250556 0.408775 0.158835
75 1 0.0846482 0.501568 0.0821648
53 1 0.167675 0.338403 0.0102499
55 1 0.248443 0.321006 0.0811737
77 1 0.167871 0.494871 0.998642
36 1 0.334878 0.252071 0.0804226
59 1 0.401365 0.327912 0.080084
60 1 0.348521 0.423417 0.0771721
201 1 0.333527 0.342112 0.168138
202 1 0.412857 0.418538 0.179346
203 1 0.410746 0.329806 0.248952
79 1 0.251445 0.485003 0.0857093
225 1 0.319062 0.506582 0.1799
83 1 0.409859 0.518899 0.0947444
180 1 0.328135 0.253755 0.243671
208 1 0.487762 0.411473 0.247867
204 1 0.324138 0.42536 0.252884
30 1 0.236165 0.240657 0.00345818
186 1 0.739502 0.245697 0.167282
64 1 0.484564 0.410388 0.0768641
38 1 0.576269 0.253482 0.989572
182 1 0.585459 0.255432 0.161982
63 1 0.571021 0.337473 0.0930228
68 1 0.659891 0.422271 0.09775
205 1 0.485437 0.341299 0.156962
206 1 0.576702 0.422524 0.179726
209 1 0.669023 0.330616 0.168437
207 1 0.583458 0.330749 0.238588
67 1 0.739748 0.344914 0.0702625
233 1 0.667026 0.514365 0.165922
231 1 0.576273 0.505404 0.259309
48 1 0.819019 0.25746 0.0900722
210 1 0.742691 0.416322 0.167396
190 1 0.908273 0.258975 0.162719
71 1 0.922515 0.342766 0.0808613
72 1 0.824647 0.425997 0.0877077
213 1 0.829924 0.342971 0.171619
214 1 0.914192 0.417744 0.164392
95 1 0.923554 0.507474 0.089224
91 1 0.746624 0.499602 0.0781839
196 1 0.00805781 0.407592 0.245808
221 1 0.170022 0.502063 0.168902
74 1 0.0871049 0.58385 0.00702558
80 1 0.168881 0.569689 0.083384
99 1 0.0966655 0.665626 0.0790424
218 1 0.0935243 0.590766 0.166268
245 1 0.176201 0.673999 0.162986
241 1 0.00105095 0.655431 0.165065
103 1 0.245184 0.669538 0.082023
104 1 0.164058 0.746006 0.0876538
224 1 0.161307 0.587464 0.260873
247 1 0.248768 0.673399 0.256987
84 1 0.327337 0.593432 0.0992781
107 1 0.415672 0.66829 0.0907307
108 1 0.342516 0.749281 0.0900196
222 1 0.244274 0.576458 0.168429
226 1 0.400082 0.583876 0.184533
249 1 0.314529 0.688768 0.167624
251 1 0.417137 0.677249 0.254737
88 1 0.514296 0.583821 0.0804238
229 1 0.495812 0.498826 0.164071
82 1 0.410651 0.586331 0.0111332
112 1 0.495614 0.758118 0.0777776
253 1 0.49682 0.666425 0.160003
256 1 0.508806 0.742787 0.249939
250 1 0.41373 0.749079 0.165936
228 1 0.315023 0.602259 0.266752
252 1 0.343643 0.751464 0.259542
106 1 0.412115 0.760436 0.993512
89 1 0.652956 0.489812 0.00644792
87 1 0.577809 0.498031 0.0837063
92 1 0.653714 0.585632 0.0860428
111 1 0.582965 0.66725 0.0832412
230 1 0.578189 0.582795 0.177743
257 1 0.666337 0.668699 0.173537
116 1 0.667114 0.751494 0.0768842
254 1 0.58976 0.744148 0.1665
110 1 0.578191 0.754365 0.987924
113 1 0.6692 0.657085 0.997979
115 1 0.745704 0.667804 0.0867477
258 1 0.752732 0.750574 0.163125
236 1 0.665118 0.575636 0.271506
255 1 0.580244 0.66486 0.255527
109 1 0.495276 0.679033 0.00845014
237 1 0.823138 0.504669 0.1752
217 1 0.00151763 0.50092 0.17041
76 1 0.00651869 0.589103 0.0803318
234 1 0.750541 0.589832 0.168829
96 1 0.833127 0.581936 0.0850151
119 1 0.905077 0.667195 0.0799563
238 1 0.915885 0.577124 0.168156
261 1 0.835148 0.664312 0.165782
263 1 0.92379 0.662897 0.256556
114 1 0.754085 0.740562 0.00210266
262 1 0.923146 0.742876 0.170172
7 1 0.251266 0.998808 0.072932
242 1 0.077322 0.737847 0.159375
123 1 0.0693362 0.825329 0.0840839
124 1 0.00206825 0.904169 0.0730146
128 1 0.155044 0.922832 0.0827057
266 1 0.066486 0.926879 0.168745
269 1 0.160493 0.837187 0.148807
267 1 0.08884 0.832264 0.252773
127 1 0.249303 0.835765 0.0829277
100 1 0.993707 0.730494 0.0833509
147 1 0.0687347 0.00412961 0.24599
272 1 0.158621 0.922365 0.234908
268 1 1.6863e-05 0.909075 0.250733
1 1 0.00390851 0.994368 0.988773
5 1 0.165911 0.99193 0.997308
153 1 0.329351 0.999676 0.175066
126 1 0.239412 0.922075 0.992382
270 1 0.247615 0.928166 0.157309
246 1 0.247468 0.76925 0.17382
131 1 0.418075 0.833218 0.0826928
132 1 0.328672 0.916614 0.0871641
273 1 0.337271 0.837042 0.165378
274 1 0.430507 0.92348 0.164302
275 1 0.415288 0.830536 0.253913
136 1 0.498096 0.916617 0.0769625
280 1 0.506636 0.923778 0.249039
129 1 0.327804 0.847975 0.999154
15 1 0.594392 0.996816 0.0833221
161 1 0.667744 0.999743 0.170022
277 1 0.512169 0.829762 0.167517
135 1 0.585553 0.833568 0.0663049
140 1 0.672774 0.901538 0.0659068
278 1 0.591572 0.906316 0.15651
281 1 0.675358 0.833274 0.155109
279 1 0.588119 0.836569 0.248881
137 1 0.671027 0.825297 0.994765
282 1 0.76011 0.922271 0.171265
17 1 0.677016 0.988429 0.994106
19 1 0.752119 0.99183 0.0713685
165 1 0.843169 0.00762931 0.16856
265 1 0.993837 0.829495 0.171711
139 1 0.758848 0.833313 0.0850661
23 1 0.926085 0.994734 0.0635865
120 1 0.840605 0.747972 0.0865535
143 1 0.919478 0.825717 0.0871133
144 1 0.84114 0.921773 0.0821543
285 1 0.833388 0.831781 0.167955
286 1 0.92461 0.908422 0.171847
138 1 0.750175 0.91256 0.997818
142 1 0.915656 0.910826 0.998707
288 1 0.83226 0.916633 0.251049
148 1 0.9947 0.0954945 0.238194
152 1 0.158593 0.072338 0.249577
290 1 0.064248 0.0827096 0.32906
296 1 0.159666 0.0873928 0.412655
313 1 0.000455834 0.16933 0.330488
315 1 0.0907826 0.172046 0.422656
317 1 0.160265 0.157501 0.327644
461 1 0.171866 0.164401 0.513
319 1 0.241753 0.167527 0.423034
292 1 0.00823887 0.0982589 0.412018
289 1 0.989166 0.0107401 0.327828
438 1 0.24146 0.0772445 0.501909
156 1 0.332924 0.0740318 0.255889
160 1 0.499716 0.0900216 0.260935
175 1 0.239728 0.171192 0.256391
179 1 0.418364 0.168497 0.231696
294 1 0.245069 0.0876068 0.335598
297 1 0.337366 0.00339438 0.332609
298 1 0.411636 0.0901981 0.33474
300 1 0.32099 0.0903892 0.412436
321 1 0.323259 0.167956 0.317345
323 1 0.411722 0.168061 0.409178
304 1 0.504785 0.0825603 0.421323
322 1 0.411831 0.249229 0.333872
324 1 0.33842 0.258474 0.418454
183 1 0.58779 0.170407 0.245197
188 1 0.665203 0.256144 0.253723
164 1 0.679084 0.0804644 0.249631
302 1 0.59179 0.0831881 0.337882
308 1 0.669713 0.0958506 0.419284
325 1 0.497386 0.175364 0.344646
327 1 0.581987 0.159402 0.432727
329 1 0.646668 0.173014 0.334299
331 1 0.759563 0.167357 0.416213
446 1 0.591701 0.0728341 0.506338
328 1 0.494716 0.247234 0.418069
326 1 0.574674 0.253844 0.337806
474 1 0.741697 0.263949 0.495746
330 1 0.745377 0.263776 0.334103
469 1 0.492992 0.168977 0.504494
191 1 0.914159 0.183639 0.246873
306 1 0.749971 0.075697 0.34021
168 1 0.83218 0.0961169 0.244069
310 1 0.907141 0.0969911 0.341741
312 1 0.823433 0.0821584 0.422629
333 1 0.82408 0.17291 0.327123
335 1 0.904496 0.171763 0.412071
334 1 0.923662 0.262321 0.330631
336 1 0.834437 0.263208 0.412729
172 1 0.00210641 0.259586 0.254037
477 1 0.83401 0.169864 0.502371
200 1 0.16944 0.414836 0.247284
195 1 0.0878699 0.334734 0.24751
199 1 0.245189 0.327307 0.260666
219 1 0.0828641 0.50464 0.2412
316 1 0.983858 0.245886 0.416652
320 1 0.166437 0.243266 0.413688
314 1 0.0817547 0.244535 0.339164
338 1 0.0837355 0.422775 0.325934
339 1 0.0787864 0.324183 0.41828
340 1 0.997762 0.428091 0.415459
341 1 0.171022 0.331261 0.329082
344 1 0.161813 0.411747 0.413305
342 1 0.234613 0.4082 0.338899
337 1 0.0249766 0.338063 0.331022
223 1 0.250172 0.501625 0.250728
482 1 0.0870722 0.415994 0.491629
363 1 0.0810892 0.503354 0.417341
361 1 0.995842 0.499913 0.331808
486 1 0.248069 0.407836 0.496071
318 1 0.240798 0.251217 0.339843
343 1 0.245536 0.327642 0.413617
345 1 0.33376 0.334772 0.322169
346 1 0.419569 0.41896 0.325012
347 1 0.429264 0.332227 0.412731
348 1 0.332968 0.410633 0.400178
369 1 0.326131 0.496481 0.343336
352 1 0.503053 0.415159 0.421758
489 1 0.336123 0.341691 0.482041
513 1 0.32414 0.490105 0.494761
212 1 0.65956 0.423155 0.252715
235 1 0.743553 0.491958 0.25688
332 1 0.662854 0.253092 0.400635
373 1 0.505085 0.491025 0.34053
349 1 0.496946 0.333058 0.330637
350 1 0.578883 0.41207 0.338404
351 1 0.586176 0.332366 0.418564
353 1 0.660579 0.330383 0.320533
356 1 0.664467 0.423136 0.415013
354 1 0.755584 0.411056 0.337443
355 1 0.733587 0.33466 0.417494
379 1 0.744326 0.492804 0.412853
215 1 0.916168 0.343813 0.258967
211 1 0.747361 0.343501 0.245354
216 1 0.83506 0.430154 0.25473
478 1 0.924219 0.239987 0.506141
357 1 0.836122 0.331505 0.333028
358 1 0.924158 0.417217 0.33486
359 1 0.910782 0.3313 0.417682
360 1 0.824813 0.405591 0.415852
501 1 0.830162 0.333936 0.494181
525 1 0.83069 0.490214 0.490867
243 1 0.081579 0.67058 0.251077
220 1 0.00627723 0.588085 0.253751
365 1 0.163732 0.501802 0.336168
367 1 0.240312 0.496513 0.421643
248 1 0.162649 0.751125 0.247481
362 1 0.0848857 0.592457 0.336618
368 1 0.16657 0.585344 0.418721
387 1 0.0896377 0.668641 0.42493
389 1 0.171845 0.673493 0.348321
533 1 0.176967 0.665132 0.490604
366 1 0.242945 0.577602 0.340381
364 1 0.00876491 0.581219 0.421621
385 1 0.00867347 0.676195 0.336393
388 1 0.9957 0.751923 0.423169
386 1 0.0838938 0.763543 0.34209
509 1 0.162996 0.50108 0.50253
529 1 0.993355 0.668415 0.497738
227 1 0.418885 0.508381 0.257646
510 1 0.248764 0.574334 0.498624
391 1 0.255132 0.66562 0.422354
371 1 0.412207 0.505693 0.407111
370 1 0.415685 0.597505 0.337614
372 1 0.331536 0.576178 0.419553
393 1 0.324083 0.666126 0.351419
395 1 0.427223 0.670602 0.420895
376 1 0.500159 0.581807 0.424906
397 1 0.500885 0.676991 0.338979
537 1 0.33348 0.668116 0.501661
394 1 0.411595 0.753453 0.335518
396 1 0.338912 0.747065 0.418515
400 1 0.507938 0.765814 0.413072
377 1 0.658532 0.489477 0.33076
375 1 0.577405 0.507764 0.420387
232 1 0.4943 0.607285 0.246817
259 1 0.75596 0.668282 0.248136
374 1 0.571308 0.582894 0.334759
380 1 0.664239 0.579537 0.411376
399 1 0.57726 0.665554 0.424108
401 1 0.668858 0.651125 0.337944
378 1 0.755645 0.568243 0.327792
398 1 0.594587 0.753456 0.337571
521 1 0.668055 0.508088 0.497112
545 1 0.672359 0.661673 0.509021
542 1 0.582475 0.747379 0.497056
239 1 0.918256 0.496952 0.255027
381 1 0.828684 0.500327 0.33226
383 1 0.915983 0.491714 0.425488
403 1 0.752618 0.669649 0.42201
240 1 0.841074 0.584213 0.255546
382 1 0.933035 0.578539 0.335925
384 1 0.83471 0.579856 0.420538
405 1 0.837804 0.66324 0.331213
407 1 0.909252 0.666801 0.413109
549 1 0.835964 0.659443 0.494934
264 1 0.823347 0.748415 0.253308
406 1 0.915496 0.751477 0.34062
244 1 0.00270343 0.74972 0.259383
526 1 0.91982 0.577488 0.497109
550 1 0.919081 0.749392 0.503547
151 1 0.243531 0.99679 0.259633
291 1 0.0801592 0.986354 0.415234
293 1 0.163344 0.000403865 0.332379
392 1 0.166406 0.759375 0.411301
410 1 0.0897997 0.915094 0.332604
411 1 0.0958239 0.844598 0.420193
412 1 0.991655 0.930526 0.424636
413 1 0.174667 0.843605 0.33487
416 1 0.167414 0.919952 0.4203
415 1 0.262981 0.830031 0.418576
437 1 0.167716 0.0100371 0.487313
554 1 0.0733207 0.905164 0.501554
433 1 0.00898851 0.00555342 0.505572
553 1 0.989909 0.835358 0.505168
276 1 0.340265 0.919509 0.253359
295 1 0.254014 0.00198451 0.408043
301 1 0.509 0.999533 0.335996
299 1 0.426382 0.0101577 0.422292
390 1 0.250184 0.760775 0.332778
271 1 0.252533 0.847226 0.250197
414 1 0.25235 0.923469 0.33926
417 1 0.335188 0.840554 0.328243
418 1 0.423711 0.914632 0.33786
419 1 0.413497 0.837301 0.420128
420 1 0.338824 0.913443 0.416921
421 1 0.500305 0.839131 0.326866
561 1 0.339408 0.832985 0.506391
538 1 0.425653 0.749905 0.50464
534 1 0.261273 0.752499 0.505962
284 1 0.67352 0.920404 0.248283
159 1 0.591112 0.00753121 0.249505
303 1 0.585964 0.984474 0.432762
307 1 0.757996 0.988373 0.417837
283 1 0.749535 0.836697 0.244909
404 1 0.669523 0.761285 0.416924
305 1 0.663674 0.00291143 0.34395
260 1 0.6744 0.754771 0.249775
422 1 0.570544 0.914184 0.344014
423 1 0.578744 0.841757 0.422064
424 1 0.495242 0.917823 0.432204
425 1 0.660042 0.840346 0.331887
428 1 0.66885 0.91975 0.417036
565 1 0.500191 0.841993 0.506059
566 1 0.591093 0.911601 0.51459
569 1 0.671178 0.832298 0.50524
287 1 0.915889 0.825634 0.260938
309 1 0.830403 0.00259807 0.3316
311 1 0.922865 0.00977179 0.416662
453 1 0.839652 0.00721771 0.51168
402 1 0.758848 0.755992 0.3362
426 1 0.748492 0.916062 0.325735
427 1 0.756514 0.843903 0.429563
167 1 0.914033 0.0177572 0.242347
408 1 0.832348 0.749031 0.417901
409 1 0.00794156 0.847951 0.346624
429 1 0.835574 0.841924 0.335552
430 1 0.916433 0.932132 0.32656
431 1 0.916252 0.843206 0.409826
432 1 0.841119 0.923406 0.411211
570 1 0.754006 0.921823 0.500495
574 1 0.914615 0.926441 0.49225
434 1 0.0886096 0.0845949 0.500623
440 1 0.146602 0.0992297 0.587846
459 1 0.0770284 0.181513 0.577843
578 1 0.0729701 0.0756345 0.680194
603 1 0.0963893 0.158849 0.75255
605 1 0.171161 0.17141 0.666587
458 1 0.0764824 0.254001 0.496423
435 1 0.0954236 0.980149 0.575068
577 1 0.00993694 0.995147 0.668243
601 1 0.00318267 0.157362 0.684292
581 1 0.168982 0.988801 0.657636
579 1 0.100179 0.987256 0.744761
442 1 0.41803 0.0896168 0.498779
465 1 0.331993 0.15968 0.494128
445 1 0.487614 0.984574 0.513232
439 1 0.25906 0.998251 0.583905
463 1 0.2687 0.152232 0.579995
582 1 0.245914 0.0761024 0.653468
444 1 0.338865 0.0885224 0.569566
467 1 0.407247 0.176488 0.580477
586 1 0.421678 0.0811643 0.66671
609 1 0.337505 0.161122 0.668187
448 1 0.495096 0.0896399 0.579593
468 1 0.327265 0.247743 0.572638
610 1 0.40599 0.246091 0.663219
472 1 0.497919 0.263233 0.582419
466 1 0.418157 0.255824 0.493871
587 1 0.413566 0.992413 0.754053
613 1 0.50472 0.179955 0.645472
473 1 0.670632 0.179824 0.497942
452 1 0.665914 0.088128 0.595736
471 1 0.58176 0.165947 0.570225
475 1 0.742435 0.173974 0.582246
590 1 0.580121 0.0866175 0.663002
593 1 0.660837 0.00376353 0.662978
615 1 0.578052 0.169006 0.74799
617 1 0.658849 0.17601 0.674592
470 1 0.582455 0.244135 0.488252
596 1 0.665049 0.0927943 0.749066
594 1 0.747045 0.080765 0.667904
476 1 0.666204 0.25173 0.589549
618 1 0.759941 0.255013 0.66505
457 1 0.00477207 0.174761 0.491728
450 1 0.73851 0.095587 0.505145
436 1 0.00789753 0.0872362 0.584936
454 1 0.923698 0.0840442 0.489428
456 1 0.823605 0.0829354 0.574114
479 1 0.920138 0.155594 0.591119
598 1 0.903284 0.0685798 0.663465
621 1 0.834558 0.170901 0.663501
597 1 0.834321 0.99183 0.674641
460 1 0.998143 0.25332 0.585415
480 1 0.843138 0.260922 0.581729
623 1 0.911237 0.158878 0.768944
600 1 0.821624 0.08545 0.753332
485 1 0.163167 0.329809 0.489675
481 1 0.996895 0.332076 0.491994
464 1 0.175797 0.255834 0.579797
602 1 0.0778174 0.254375 0.661397
483 1 0.0903692 0.337388 0.577344
488 1 0.160315 0.416298 0.568709
626 1 0.0892228 0.412466 0.671027
627 1 0.0937064 0.32867 0.752037
628 1 0.0136663 0.420303 0.75485
629 1 0.165625 0.322364 0.665371
653 1 0.167512 0.495026 0.668943
462 1 0.260982 0.249759 0.494543
606 1 0.258943 0.239471 0.659393
487 1 0.263165 0.333882 0.581061
630 1 0.253742 0.41277 0.670487
490 1 0.409741 0.419323 0.489399
491 1 0.410494 0.329788 0.587914
492 1 0.327103 0.418208 0.578889
633 1 0.330668 0.343773 0.671946
634 1 0.42567 0.415308 0.667614
637 1 0.505088 0.34211 0.668657
496 1 0.494845 0.419712 0.575838
640 1 0.515576 0.420208 0.747078
511 1 0.25262 0.493699 0.59582
497 1 0.652564 0.336034 0.498499
498 1 0.736884 0.414121 0.498454
614 1 0.579457 0.248869 0.670899
493 1 0.503153 0.337909 0.50951
494 1 0.588124 0.426342 0.498561
495 1 0.587899 0.325419 0.576104
500 1 0.666645 0.41189 0.581604
638 1 0.585082 0.415447 0.655091
641 1 0.678405 0.34219 0.666178
644 1 0.681383 0.404018 0.745541
523 1 0.766604 0.499589 0.581807
517 1 0.491325 0.493166 0.49779
665 1 0.676589 0.510689 0.669942
519 1 0.600762 0.497636 0.586689
620 1 0.678613 0.264041 0.752971
639 1 0.581772 0.338688 0.74872
643 1 0.763681 0.335941 0.757257
484 1 0.0136767 0.411419 0.582303
642 1 0.762601 0.41528 0.660269
499 1 0.745633 0.330892 0.579994
625 1 0.0055003 0.337948 0.67521
502 1 0.923802 0.416398 0.509994
503 1 0.927862 0.342187 0.591282
504 1 0.845553 0.416029 0.590069
622 1 0.926248 0.249097 0.682876
645 1 0.836712 0.341647 0.662735
646 1 0.931978 0.427263 0.673372
669 1 0.838249 0.497028 0.681315
527 1 0.916394 0.507344 0.58922
647 1 0.92813 0.338494 0.747934
667 1 0.753019 0.495763 0.75001
648 1 0.841154 0.411506 0.751583
506 1 0.0799495 0.591067 0.495723
530 1 0.0839015 0.761994 0.486952
505 1 0.00437987 0.50322 0.513719
649 1 0.0158338 0.49451 0.667753
507 1 0.0829384 0.488495 0.577519
512 1 0.17461 0.586415 0.579617
531 1 0.0940113 0.661415 0.580514
650 1 0.0925291 0.578376 0.659783
677 1 0.163991 0.672491 0.671522
654 1 0.251819 0.588281 0.668378
536 1 0.170402 0.746291 0.581296
651 1 0.0926919 0.50422 0.751706
656 1 0.17258 0.588206 0.750981
655 1 0.254042 0.496928 0.748025
514 1 0.414963 0.585851 0.503638
541 1 0.500342 0.67924 0.503137
535 1 0.255128 0.659894 0.587458
515 1 0.399258 0.500238 0.567279
516 1 0.329585 0.584095 0.581027
539 1 0.410639 0.659092 0.583127
657 1 0.340697 0.506338 0.670928
658 1 0.415162 0.584799 0.663424
660 1 0.323159 0.595992 0.741359
681 1 0.333149 0.673053 0.669649
683 1 0.415423 0.664006 0.738798
684 1 0.340689 0.744162 0.755057
678 1 0.26393 0.749897 0.661155
518 1 0.589379 0.586995 0.505451
661 1 0.503389 0.49783 0.670449
520 1 0.49078 0.570733 0.577089
685 1 0.491386 0.67379 0.648706
664 1 0.498613 0.58831 0.746268
524 1 0.682747 0.576876 0.583954
543 1 0.576904 0.670096 0.580005
662 1 0.568308 0.583072 0.662309
689 1 0.665978 0.665831 0.652798
686 1 0.575683 0.75331 0.662526
547 1 0.759043 0.665934 0.575132
666 1 0.751562 0.589471 0.659904
546 1 0.758274 0.74548 0.504504
508 1 0.0110605 0.592732 0.581409
673 1 0.00244546 0.66848 0.664407
522 1 0.752125 0.583009 0.494473
528 1 0.838776 0.588815 0.57774
551 1 0.915785 0.672391 0.59235
552 1 0.831535 0.747192 0.596284
670 1 0.919085 0.589079 0.667761
693 1 0.828967 0.663263 0.676666
690 1 0.731278 0.742057 0.676701
672 1 0.839802 0.575897 0.759286
671 1 0.926847 0.497822 0.756444
691 1 0.732543 0.659439 0.764339
695 1 0.921397 0.667372 0.752107
674 1 0.0831163 0.737404 0.670917
555 1 0.0848534 0.828099 0.590518
556 1 0.984274 0.907052 0.591966
557 1 0.181807 0.826889 0.494127
560 1 0.175591 0.91781 0.568994
698 1 0.0788582 0.903589 0.662408
701 1 0.171503 0.825721 0.666318
704 1 0.166065 0.906927 0.745367
697 1 0.99647 0.826222 0.6792
558 1 0.25164 0.922725 0.502744
702 1 0.256769 0.895626 0.671303
699 1 0.0870633 0.823544 0.743219
441 1 0.332838 0.999623 0.487563
562 1 0.410365 0.913185 0.503192
585 1 0.328553 0.997501 0.675772
443 1 0.399674 0.0082094 0.574494
559 1 0.240778 0.844775 0.575892
540 1 0.339782 0.757 0.579637
682 1 0.41214 0.749275 0.663375
563 1 0.41672 0.840024 0.582046
564 1 0.331736 0.915879 0.580052
705 1 0.345547 0.828349 0.661545
706 1 0.409378 0.922226 0.678158
709 1 0.49759 0.838423 0.679801
449 1 0.672262 0.0121062 0.506994
591 1 0.583058 0.000926413 0.74303
544 1 0.493776 0.764874 0.584289
548 1 0.678317 0.745978 0.580117
589 1 0.495142 0.00585787 0.659814
568 1 0.494885 0.918167 0.596772
447 1 0.585149 0.00245948 0.581746
567 1 0.579618 0.831785 0.58436
572 1 0.671597 0.918189 0.579308
710 1 0.586499 0.914466 0.668567
713 1 0.672482 0.837152 0.665993
711 1 0.580057 0.822673 0.752823
715 1 0.75113 0.821627 0.753502
455 1 0.919268 0.00611219 0.583016
694 1 0.902864 0.748599 0.674758
532 1 0.0140616 0.754108 0.575597
451 1 0.748854 0.993128 0.588657
700 1 0.99985 0.918478 0.755093
571 1 0.751467 0.826124 0.587554
714 1 0.746288 0.91168 0.655223
573 1 0.841169 0.828283 0.497966
575 1 0.922018 0.822816 0.597165
576 1 0.836569 0.906158 0.58659
717 1 0.820354 0.829953 0.671271
718 1 0.909541 0.906475 0.683016
676 1 0.997378 0.739506 0.762721
696 1 0.812917 0.740927 0.759576
599 1 0.923867 0.00182491 0.740175
2 1 0.0777781 0.0687753 0.9964
584 1 0.171533 0.0754501 0.742414
608 1 0.17678 0.241366 0.754759
722 1 0.101524 0.0768274 0.830631
725 1 0.177856 0.979764 0.83672
728 1 0.175338 0.0783333 0.924902
747 1 0.0943037 0.148619 0.915171
749 1 0.18143 0.160803 0.826257
751 1 0.256948 0.167982 0.913272
752 1 0.164506 0.231011 0.912142
724 1 0.0065781 0.0763283 0.902193
745 1 0.000501944 0.149628 0.829193
726 1 0.253821 0.0825901 0.831293
723 1 0.0956685 0.993317 0.916939
727 1 0.272431 0.00486547 0.926737
588 1 0.333472 0.0860054 0.731748
607 1 0.255499 0.15502 0.749706
616 1 0.497329 0.264142 0.747337
583 1 0.247355 0.994251 0.73996
592 1 0.502155 0.0812658 0.74567
611 1 0.426749 0.170904 0.731336
730 1 0.413287 0.0791519 0.823988
732 1 0.329398 0.085653 0.917037
753 1 0.345992 0.160596 0.814358
755 1 0.406519 0.156294 0.912591
37 1 0.507336 0.159942 0.994988
736 1 0.487359 0.0783971 0.908233
757 1 0.506093 0.1681 0.839089
729 1 0.324816 0.995212 0.827606
41 1 0.664114 0.172502 0.000832245
619 1 0.754171 0.168914 0.739618
595 1 0.742506 0.993971 0.736845
14 1 0.583245 0.0769432 0.995678
734 1 0.582414 0.0841373 0.829997
737 1 0.667134 0.00191947 0.819688
740 1 0.659617 0.0867155 0.91176
759 1 0.577181 0.169953 0.912361
761 1 0.664835 0.17573 0.817742
758 1 0.586795 0.2562 0.818647
738 1 0.740569 0.0931358 0.83566
764 1 0.648049 0.259458 0.907079
733 1 0.50011 0.00240366 0.835085
735 1 0.58176 0.996727 0.910501
739 1 0.747108 0.00571479 0.908852
763 1 0.73156 0.167388 0.916842
22 1 0.917666 0.0777689 0.987696
46 1 0.917721 0.246393 0.986687
580 1 0.0097789 0.072061 0.761778
741 1 0.833264 0.998271 0.83194
742 1 0.907562 0.0690592 0.829802
744 1 0.828601 0.0788214 0.912183
765 1 0.827538 0.163913 0.833022
767 1 0.910655 0.164059 0.907938
748 1 0.994333 0.23144 0.911045
766 1 0.921695 0.25119 0.823814
768 1 0.838896 0.260484 0.920438
743 1 0.913953 0.98919 0.928213
50 1 0.0849782 0.42345 0.993783
632 1 0.170757 0.419848 0.759819
26 1 0.0843667 0.248569 0.996629
750 1 0.262592 0.249022 0.829413
746 1 0.0941021 0.233946 0.840133
770 1 0.0847752 0.407035 0.831395
771 1 0.0925509 0.32676 0.910587
773 1 0.167065 0.322306 0.83763
776 1 0.161176 0.413306 0.920062
774 1 0.251989 0.421509 0.833192
772 1 0.00983817 0.421992 0.911144
775 1 0.24593 0.325987 0.908756
797 1 0.167219 0.500767 0.849961
795 1 0.0895966 0.514017 0.933494
54 1 0.253135 0.407372 0.999303
57 1 0.319607 0.332207 0.984971
58 1 0.407791 0.419714 0.994239
81 1 0.337646 0.509919 0.0125037
631 1 0.241255 0.330497 0.75094
636 1 0.338074 0.41814 0.742746
612 1 0.324112 0.254971 0.745769
34 1 0.420418 0.251507 0.000955378
756 1 0.331532 0.242629 0.919393
635 1 0.419892 0.338921 0.741168
754 1 0.420557 0.250714 0.835749
777 1 0.338924 0.33621 0.828389
778 1 0.413695 0.427388 0.824327
779 1 0.408399 0.328961 0.913047
780 1 0.334982 0.428555 0.909597
61 1 0.491109 0.335682 0.00119709
799 1 0.251076 0.495127 0.918057
62 1 0.569083 0.420131 0.98862
663 1 0.60544 0.480397 0.745657
760 1 0.489115 0.248146 0.919542
762 1 0.753897 0.251236 0.819805
781 1 0.487176 0.332269 0.839729
784 1 0.489003 0.426981 0.907572
65 1 0.644987 0.332558 0.00511448
782 1 0.584469 0.420025 0.831411
783 1 0.572564 0.337477 0.899836
785 1 0.670521 0.334385 0.83575
788 1 0.657816 0.4045 0.91912
809 1 0.667476 0.492097 0.856969
805 1 0.502751 0.501073 0.816929
49 1 0.990415 0.322992 0.000729569
70 1 0.915592 0.41648 0.998732
93 1 0.838813 0.49276 0.00160975
624 1 0.837361 0.246402 0.743363
604 1 0.0108236 0.237533 0.758978
769 1 0.00624194 0.316135 0.840278
786 1 0.752875 0.416583 0.838139
69 1 0.827852 0.327055 0.0143452
66 1 0.741565 0.416971 0.988523
787 1 0.747828 0.324643 0.919627
789 1 0.840482 0.322238 0.838285
790 1 0.919704 0.413275 0.82602
791 1 0.921028 0.3416 0.913334
792 1 0.829272 0.408251 0.926527
811 1 0.747577 0.499148 0.923522
813 1 0.843988 0.495856 0.841525
101 1 0.170017 0.66344 0.00607459
675 1 0.0867011 0.663696 0.761994
793 1 0.0112845 0.498161 0.82253
794 1 0.0876213 0.564585 0.84731
796 1 0.999419 0.583198 0.921376
800 1 0.188526 0.587366 0.925016
819 1 0.0844546 0.663985 0.93108
821 1 0.174347 0.663234 0.851091
817 1 0.995571 0.665693 0.836856
824 1 0.155791 0.75737 0.942596
798 1 0.254409 0.581566 0.826935
78 1 0.255588 0.585519 0.0152523
85 1 0.488224 0.504726 0.0059994
823 1 0.271947 0.678116 0.920379
105 1 0.341228 0.669966 0.0107467
659 1 0.41903 0.506796 0.743786
803 1 0.419081 0.501872 0.919723
679 1 0.251302 0.677583 0.743204
801 1 0.330425 0.503681 0.829323
802 1 0.417307 0.58105 0.831693
804 1 0.326982 0.574981 0.911019
825 1 0.33296 0.657065 0.830893
827 1 0.409489 0.663207 0.909732
808 1 0.492727 0.598379 0.913763
829 1 0.502778 0.668396 0.823268
826 1 0.432514 0.744541 0.82679
86 1 0.577415 0.580151 0.996192
687 1 0.579013 0.671432 0.73437
668 1 0.657097 0.572534 0.758124
806 1 0.57887 0.5899 0.82684
807 1 0.576873 0.506685 0.915316
812 1 0.661638 0.579627 0.918721
830 1 0.577099 0.744466 0.835289
831 1 0.57862 0.677392 0.927195
833 1 0.660393 0.663812 0.837784
835 1 0.748254 0.65183 0.909452
73 1 0.0014498 0.501196 0.0116415
90 1 0.756991 0.581502 0.993908
97 1 0.00204976 0.660918 0.996147
118 1 0.923971 0.747002 0.995712
652 1 0.00115707 0.591377 0.747061
117 1 0.82701 0.653366 0.00275759
94 1 0.914385 0.57878 0.00410493
810 1 0.762389 0.569652 0.83944
814 1 0.931647 0.57836 0.830132
815 1 0.919224 0.489595 0.928081
816 1 0.84257 0.58096 0.922719
837 1 0.830724 0.657209 0.825506
839 1 0.910604 0.671805 0.910656
125 1 0.168573 0.839021 0.017783
102 1 0.27183 0.750552 0.998505
703 1 0.253687 0.800454 0.748924
721 1 0.00575432 0.995705 0.830879
680 1 0.164862 0.745393 0.754314
818 1 0.0832793 0.742494 0.83056
122 1 0.0835057 0.91574 0.00262717
98 1 0.0710607 0.759678 0.000890941
842 1 0.0854013 0.908375 0.815684
843 1 0.0867199 0.830965 0.897628
844 1 0.00391414 0.907719 0.904633
845 1 0.180312 0.834247 0.812787
848 1 0.166157 0.899811 0.912362
847 1 0.264955 0.822939 0.924549
846 1 0.253407 0.907623 0.829811
822 1 0.238022 0.753274 0.836559
121 1 0.99709 0.8354 0.97849
841 1 0.992862 0.82974 0.826886
707 1 0.412355 0.825743 0.750363
708 1 0.329817 0.906299 0.741783
828 1 0.342214 0.75397 0.896086
130 1 0.418217 0.921399 0.00470058
731 1 0.411981 0.988986 0.912402
133 1 0.492672 0.838182 0.000158841
849 1 0.322667 0.832698 0.826454
850 1 0.40022 0.901702 0.831447
851 1 0.413842 0.835751 0.913953
852 1 0.331502 0.912344 0.913799
853 1 0.49766 0.837692 0.836128
856 1 0.492731 0.921219 0.915362
712 1 0.498287 0.921648 0.760693
13 1 0.494107 0.00312988 0.00614911
716 1 0.660783 0.907228 0.746857
688 1 0.497763 0.762015 0.751284
692 1 0.66181 0.751626 0.76151
836 1 0.660544 0.751118 0.911684
832 1 0.488346 0.748566 0.920174
134 1 0.581169 0.925366 0.996539
854 1 0.581923 0.914791 0.829807
855 1 0.581981 0.824489 0.914823
857 1 0.658965 0.831107 0.833767
860 1 0.669338 0.907411 0.910758
834 1 0.750909 0.743005 0.846916
141 1 0.843885 0.832453 0.997903
719 1 0.914354 0.838815 0.758671
720 1 0.820646 0.919665 0.755836
21 1 0.837901 0.999207 0.00185727
838 1 0.911987 0.755537 0.829134
820 1 0.00137093 0.751598 0.905471
859 1 0.762672 0.828048 0.919097
840 1 0.829709 0.748785 0.920406
858 1 0.741616 0.929295 0.834481
861 1 0.823886 0.842094 0.837349
862 1 0.911684 0.913359 0.847695
863 1 0.917481 0.833621 0.912301
864 1 0.831232 0.921463 0.912918
