LAMMPS (7 Feb 2024 - Update 1)
OMP_NUM_THREADS environment is not set. Defaulting to 1 thread. (src/comm.cpp:98)
  using 1 OpenMP thread(s) per MPI task
Lattice spacing in x,y,z = 4.041 4.041 4.041
Created orthogonal box = (0 0 0) to (24.246 24.246 24.246)
  1 by 1 by 1 MPI processor grid
Created 864 atoms
  using lattice units in orthogonal box = (0 0 0) to (24.246 24.246 24.246)
  create_atoms CPU = 0.000 seconds
Reading eam/alloy potential file /usr/share/lammps/potentials/Al_zhou.eam.alloy with DATE: 2007-10-12
Neighbor list info ...
  update: every = 1 steps, delay = 0 steps, check = yes
  max neighbors/atom: 2000, page size: 100000
  master list distance cutoff = 12.1025
  ghost atom cutoff = 12.1025
  binsize = 6.05125, bins = 5 5 5
  1 neighbor lists, perpetual/occasional/extra = 1 0 0
  (1) pair eam/alloy, perpetual
      attributes: half, newton on
      pair build: half/bin/atomonly/newton
      stencil: half/bin/3d
      bin: standard
Setting up cg style minimization ...
  Unit style    : metal
  Current step  : 0
Per MPI rank memory allocation (min/avg/max) = 5.072 | 5.072 | 5.072 Mbytes
   Step          Temp          PotEng         KinEng         TotEng         Press         Density         Volume    
         0   300           -3089.0498      33.465452     -3055.5844      33180.028      2.7159179      14253.46     
         1   300           -3089.0498      33.465452     -3055.5844      33180.028      2.7159179      14253.46     
Loop time of 0.00714491 on 1 procs for 1 steps with 864 atoms

98.7% CPU use with 1 MPI tasks x 1 OpenMP threads

Minimization stats:
  Stopping criterion = energy tolerance
  Energy initial, next-to-last, final = 
     -3089.04983827613  -3089.04983827613  -3089.04983827613
  Force two-norm initial, final = 1.7821753e-13 1.7848391e-13
  Force max component initial, final = 8.6597396e-15 9.4974721e-15
  Final line search alpha, max atom move = 1 9.4974721e-15
  Iterations, force evaluations = 1 2

MPI task timing breakdown:
Section |  min time  |  avg time  |  max time  |%varavg| %total
---------------------------------------------------------------
Pair    | 0.0070811  | 0.0070811  | 0.0070811  |   0.0 | 99.11
Neigh   | 0          | 0          | 0          |   0.0 |  0.00
Comm    | 3.3826e-05 | 3.3826e-05 | 3.3826e-05 |   0.0 |  0.47
Output  | 0          | 0          | 0          |   0.0 |  0.00
Modify  | 0          | 0          | 0          |   0.0 |  0.00
Other   |            | 3.002e-05  |            |       |  0.42

Nlocal:            864 ave         864 max         864 min
Histogram: 1 0 0 0 0 0 0 0 0 0
Nghost:           5219 ave        5219 max        5219 min
Histogram: 1 0 0 0 0 0 0 0 0 0
Neighs:         184896 ave      184896 max      184896 min
Histogram: 1 0 0 0 0 0 0 0 0 0

Total # of neighbors = 184896
Ave neighs/atom = 214
Neighbor list builds = 0
Dangerous builds = 0
Setting up Verlet run ...
  Unit style    : metal
  Current step  : 0
  Time step     : 0.001
Per MPI rank memory allocation (min/avg/max) = 3.947 | 3.947 | 3.947 Mbytes
   Step          Temp          PotEng         KinEng         TotEng         Press         Density         Volume    
         0   300           -3089.0498      33.465452     -3055.5844      33180.028      2.7159179      14253.46     
       100   111.33326     -3069.8403      12.419392     -3057.4209     -20541.161      2.5393142      15244.757    
       200   189.36577     -3075.1893      21.124037     -3054.0653      14216.786      2.6512322      14601.221    
       300   174.23434     -3067.6581      19.436103     -3048.222      -8454.2433      2.5722342      15049.651    
       400   235.62799     -3067.5266      26.284656     -3041.2419      5734.8773      2.6144667      14806.548    
       500   234.37347     -3060.0014      26.144714     -3033.8567     -2799.7055      2.5746324      15035.633    
       600   292.8581      -3059.0571      32.668762     -3026.3884      1684.9909      2.5875596      14960.516    
       700   286.76425     -3053.2858      31.988984     -3021.2968     -104.3537       2.5718147      15052.106    
       800   346.04807     -3055.2558      38.602183     -3016.6537     -1549.3663      2.5691527      15067.702    
       900   319.37207     -3053.2743      35.626435     -3017.6478      329.95928      2.5742623      15037.795    
      1000   287.09034     -3054.0594      32.02536      -3022.0341     -129.27475      2.572674       15047.078    
      1100   296.00894     -3057.0058      33.020243     -3023.9856     -114.06503      2.5786962      15011.938    
      1200   269.09252     -3055.0674      30.017676     -3025.0498      1442.2925      2.5814395      14995.985    
      1300   292.72103     -3056.3918      32.653471     -3023.7383      290.93062      2.5783437      15013.99     
      1400   312.91808     -3056.0008      34.906483     -3021.0943     -1757.3043      2.5704973      15059.82     
      1500   314.88904     -3053.9187      35.126346     -3018.7924      766.96231      2.5760328      15027.459    
      1600   317.1346      -3054.7389      35.376842     -3019.3621     -1207.5174      2.5689851      15068.685    
      1700   305.80784     -3055.4774      34.113325     -3021.3641      300.34843      2.5760088      15027.599    
      1800   296.34537     -3056.379       33.057772     -3023.3213     -777.91407      2.5742567      15037.827    
      1900   284.85958     -3055.6799      31.776515     -3023.9034      908.87706      2.5789583      15010.413    
      2000   289.27629     -3054.835       32.269206     -3022.5658      292.84145      2.575698       15029.413    
      2100   322.03787     -3056.2106      35.92381      -3020.2867     -1103.2348      2.572402       15048.669    
      2200   305.94356     -3054.0168      34.128465     -3019.8884      406.09265      2.5752456      15032.053    
      2300   303.26534     -3054.4021      33.829706     -3020.5724     -1032.4419      2.5706801      15058.75     
      2400   296.75905     -3055.2519      33.103919     -3022.148       1710.4165      2.5817136      14994.392    
      2500   284.61403     -3055.6792      31.749124     -3023.93       -857.82435      2.5737693      15040.675    
      2600   291.39615     -3056.0392      32.50568      -3023.5336      1264.2782      2.5818834      14993.406    
      2700   290.94802     -3054.5466      32.455689     -3022.0909     -961.84651      2.5711732      15055.861    
      2800   319.53749     -3055.5703      35.644888     -3019.9254      956.86215      2.5792063      15008.969    
      2900   299.04512     -3053.6386      33.358933     -3020.2797     -926.96967      2.5694526      15065.943    
      3000   315.59071     -3056.036       35.204619     -3020.8314      193.29662      2.5769923      15021.864    
      3100   285.39254     -3054.55        31.835967     -3022.714       259.29737      2.5759235      15028.096    
      3200   292.38135     -3055.9611      32.61558      -3023.3455     -219.88952      2.5766439      15023.895    
      3300   303.73685     -3056.7474      33.882303     -3022.8651      727.48328      2.5800408      15004.114    
      3400   301.55184     -3055.1623      33.638561     -3021.5237     -1657.3747      2.5699169      15063.221    
      3500   316.93886     -3055.3895      35.355007     -3020.0345      1175.4936      2.5796333      15006.484    
      3600   294.56559     -3053.4401      32.859234     -3020.5809     -1203.4598      2.5687806      15069.885    
      3700   311.08582     -3056.2939      34.702091     -3021.5918      1105.2689      2.5808728      14999.278    
      3800   295.43939     -3056.0757      32.956708     -3023.119      -1414.9051      2.5725174      15047.994    
      3900   300.62776     -3056.8911      33.535479     -3023.3556      787.01496      2.5810029      14998.521    
      4000   282.6653      -3054.3775      31.531739     -3022.8457      786.09261      2.5764796      15024.853    
      4100   308.29205     -3055.3594      34.390442     -3020.969      -732.6408       2.5728456      15046.075    
      4200   308.28032     -3054.7052      34.389134     -3020.3161      351.53937      2.5761494      15026.779    
      4300   283.79877     -30--------------------------------------------------------------------------
MPI_ABORT was invoked on rank 0 in communicator MPI_COMM_WORLD
with errorcode 1.

NOTE: invoking MPI_ABORT causes Open MPI to kill all MPI processes.
You may or may not see output from other processes, depending on
exactly when Open MPI kills them.
--------------------------------------------------------------------------
