LAMMPS (7 Feb 2024 - Update 1)
OMP_NUM_THREADS environment is not set. Defaulting to 1 thread. (src/comm.cpp:98)
  using 1 OpenMP thread(s) per MPI task
Lattice spacing in x,y,z = 4.041 4.041 4.041
Created orthogonal box = (0 0 0) to (24.246 24.246 24.246)
  1 by 1 by 1 MPI processor grid
Created 864 atoms
  using lattice units in orthogonal box = (0 0 0) to (24.246 24.246 24.246)
  create_atoms CPU = 0.000 seconds
Reading eam/alloy potential file /usr/share/lammps/potentials/Al_zhou.eam.alloy with DATE: 2007-10-12
Switching to 'neigh_modify every 1 delay 0 check yes' setting during minimization
Neighbor list info ...
  update: every = 1 steps, delay = 0 steps, check = yes
  max neighbors/atom: 2000, page size: 100000
  master list distance cutoff = 13.1025
  ghost atom cutoff = 13.1025
  binsize = 6.55125, bins = 4 4 4
  1 neighbor lists, perpetual/occasional/extra = 1 0 0
  (1) pair eam/alloy, perpetual
      attributes: half, newton on
      pair build: half/bin/atomonly/newton
      stencil: half/bin/3d
      bin: standard
Setting up cg style minimization ...
  Unit style    : metal
  Current step  : 0
Per MPI rank memory allocation (min/avg/max) = 5.553 | 5.553 | 5.553 Mbytes
   Step          Temp          PotEng         KinEng         TotEng         Press         Density         Volume    
         0   300           -3089.0498      33.465452     -3055.5844      33180.028      2.7159179      14253.46     
         1   300           -3089.0498      33.465452     -3055.5844      33180.028      2.7159179      14253.46     
Loop time of 0.0056413 on 1 procs for 1 steps with 864 atoms

85.2% CPU use with 1 MPI tasks x 1 OpenMP threads

Minimization stats:
  Stopping criterion = energy tolerance
  Energy initial, next-to-last, final = 
     -3089.04983827613  -3089.04983827613  -3089.04983827613
  Force two-norm initial, final = 1.8154631e-13 1.8169388e-13
  Force max component initial, final = 8.85624e-15 9.522241e-15
  Final line search alpha, max atom move = 1 9.522241e-15
  Iterations, force evaluations = 1 2

MPI task timing breakdown:
Section |  min time  |  avg time  |  max time  |%varavg| %total
---------------------------------------------------------------
Pair    | 0.0055746  | 0.0055746  | 0.0055746  |   0.0 | 98.82
Neigh   | 0          | 0          | 0          |   0.0 |  0.00
Comm    | 3.5702e-05 | 3.5702e-05 | 3.5702e-05 |   0.0 |  0.63
Output  | 0          | 0          | 0          |   0.0 |  0.00
Modify  | 0          | 0          | 0          |   0.0 |  0.00
Other   |            | 3.105e-05  |            |       |  0.55

Nlocal:            864 ave         864 max         864 min
Histogram: 1 0 0 0 0 0 0 0 0 0
Nghost:           6949 ave        6949 max        6949 min
Histogram: 1 0 0 0 0 0 0 0 0 0
Neighs:         260064 ave      260064 max      260064 min
Histogram: 1 0 0 0 0 0 0 0 0 0

Total # of neighbors = 260064
Ave neighs/atom = 301
Neighbor list builds = 0
Dangerous builds = 0
Setting up Verlet run ...
  Unit style    : metal
  Current step  : 0
  Time step     : 0.001
Per MPI rank memory allocation (min/avg/max) = 4.428 | 4.428 | 4.428 Mbytes
   Step          Temp          PotEng         KinEng         TotEng         Press         Density         Volume    
         0   300           -3089.0498      33.465452     -3055.5844      33180.028      2.7159179      14253.46     
       100   104.49275     -3071.0921      11.656324     -3059.4358     -20993.407      2.5402244      15239.295    
       200   156.71601     -3078.2931      17.481907     -3060.8112      14307.795      2.6559729      14575.159    
       300   125.4448      -3074.7474      13.993556     -3060.7539     -8928.8789      2.5827624      14988.304    
       400   156.14868     -3077.6527      17.41862      -3060.2341      5906.3798      2.6303774      14716.986    
       500   133.69921     -3074.351       14.914348     -3059.4366     -3848.0761      2.5961894      14910.787    
       600   163.57706     -3076.7713      18.247267     -3058.5241      3064.2778      2.6203548      14773.277    
       700   149.11747     -3074.2072      16.634278     -3057.5729     -2942.1812      2.5985906      14897.009    
       800   150.88075     -3073.3415      16.830975     -3056.5105      3581.644       2.6180092      14786.513    
       900   154.61373     -3072.6645      17.247394     -3055.4171     -1620.788       2.6005996      14885.501    
      1000   172.91713     -3073.589       19.289166     -3054.2998      555.50571      2.6083164      14841.461    
      1100   175.28396     -3072.6306      19.553189     -3053.0774     -374.2431       2.6039323      14866.449    
      1200   186.46166     -3072.6549      20.800079     -3051.8548     -386.47832      2.6033843      14869.579    
      1300   178.85339     -3070.5351      19.951365     -3050.5837     -242.97047      2.6011931      14882.104    
      1400   180.18209     -3069.3576      20.099584     -3049.258       1202.1384      2.6036557      14868.029    
      1500   193.64595     -3069.4926      21.601497     -3047.8911     -111.61487      2.5987958      14895.832    
      1600   201.33095     -3068.9824      22.458771     -3046.5237     -149.66808      2.598476       14897.666    
      1700   212.23122     -3068.7696      23.674712     -3045.0948     -23.05792       2.5978155      14901.453    
      1800   207.22398     -3066.7909      23.116147     -3043.6748     -609.91277      2.5936095      14925.619    
      1900   213.43512     -3066.0116      23.809009     -3042.2026      1351.2449      2.598696       14896.405    
      2000   229.43858     -3066.3067      25.594219     -3040.7125     -929.49883      2.5918145      14935.956    
      2100   231.86594     -3065.1298      25.864994     -3039.2648     -438.78238      2.5913355      14938.717    
      2200   238.51502     -3064.3526      26.606709     -3037.7459      460.26415      2.5920792      14934.43     
      2300   234.1207      -3062.3532      26.116517     -3036.2367     -83.197705      2.5884607      14955.308    
      2400   244.77372     -3062.0464      27.304877     -3034.7415      560.02913      2.5896319      14948.544    
      2500   257.01327     -3061.906       28.670217     -3033.2358     -358.27391      2.5865039      14966.622    
      2600   257.68651     -3060.5364      28.745318     -3031.7911      359.51364      2.5857023      14971.262    
      2700   260.73364     -3059.4068      29.08523      -3030.3216      371.19997      2.5838667      14981.898    
      2800   292.36493     -3061.5034      32.613748     -3028.8896     -1429.6371      2.5806858      15000.364    
      2900   269.858       -3057.5932      30.103066     -3027.4901      1336.1226      2.5847433      14976.817    
      3000   285.28161     -3057.9781      31.823593     -3026.1545     -1687.2143      2.5743129      15037.499    
      3100   281.38485     -3056.2364      31.388903     -3024.8475      1588.4194      2.5834663      14984.22     
      3200   286.66641     -3055.5907      31.978069     -3023.6126     -355.65516      2.5751137      15032.822    
      3300   292.5561      -3055.0806      32.635073     -3022.4456      884.92029      2.5797664      15005.71     
      3400   310.45841     -3056.0251      34.632103     -3021.393      -1195.2275      2.5722903      15049.323    
      3500   308.85296     -3054.8642      34.453013     -3020.4112      382.89617      2.5760143      15027.567    
      3600   318.03232     -3055.0078      35.476984     -3019.5308     -1067.2194      2.5712707      15055.29     
      3700   313.10398     -3053.6887      34.92722      -3018.7614      807.1913       2.5752954      15031.762    
      3800   305.10321     -3052.1881      34.034722     -3018.1534      34.641837      2.5706169      15059.12     
      3900   313.04277     -3052.5948      34.920392     -3017.6744     -278.44155      2.5701844      15061.654    
      4000   312.68307     -3052.2168      34.880267     -3017.3365      1249.7906      2.5749152      15033.982    
      4100   315.83789     -3052.4195      35.232192     -3017.1873     -1116.3229      2.5666019      15082.677    
      4200   322.17394     -3053.1198      35.938988     -3017.1808   --------------------------------------------------------------------------
MPI_ABORT was invoked on rank 0 in communicator MPI_COMM_WORLD
with errorcode 1.

NOTE: invoking MPI_ABORT causes Open MPI to kill all MPI processes.
You may or may not see output from other processes, depending on
exactly when Open MPI kills them.
--------------------------------------------------------------------------
