LAMMPS (7 Feb 2024 - Update 1)
OMP_NUM_THREADS environment is not set. Defaulting to 1 thread. (src/comm.cpp:98)
  using 1 OpenMP thread(s) per MPI task
Reading data file ...
  orthogonal box = (-0.30919023 -0.30919023 -0.30919023) to (24.55519 24.55519 24.55519)
  1 by 1 by 1 MPI processor grid
  reading atoms ...
  864 atoms
  reading velocities ...
  864 velocities
  read_data CPU = 0.002 seconds
Reading eam/alloy potential file /usr/share/lammps/potentials/Al_zhou.eam.alloy with DATE: 2007-10-12
ERROR: Illegal variable loop command: too many arguments (src/variable.cpp:228)
Last command: variable T loop 300 1200 300
