LAMMPS (7 Feb 2024 - Update 1)
OMP_NUM_THREADS environment is not set. Defaulting to 1 thread. (src/comm.cpp:98)
  using 1 OpenMP thread(s) per MPI task
Reading data file ...
  orthogonal box = (-0.30919023 -0.30919023 -0.30919023) to (24.55519 24.55519 24.55519)
  1 by 1 by 1 MPI processor grid
  reading atoms ...
  864 atoms
  reading velocities ...
  864 velocities
  read_data CPU = 0.002 seconds
Reading eam/alloy potential file /usr/share/lammps/potentials/Al_zhou.eam.alloy with DATE: 2007-10-12
Switching to 'neigh_modify every 1 delay 0 check yes' setting during minimization
Neighbor list info ...
  update: every = 1 steps, delay = 0 steps, check = yes
  max neighbors/atom: 2000, page size: 100000
  master list distance cutoff = 13.1025
  ghost atom cutoff = 13.1025
  binsize = 6.55125, bins = 4 4 4
  1 neighbor lists, perpetual/occasional/extra = 1 0 0
  (1) pair eam/alloy, perpetual
      attributes: half, newton on
      pair build: half/bin/atomonly/newton
      stencil: half/bin/3d
      bin: standard
Setting up cg style minimization ...
  Unit style    : metal
  Current step  : 0
Per MPI rank memory allocation (min/avg/max) = 5.531 | 5.531 | 5.531 Mbytes
   Step          Temp          PotEng         KinEng         TotEng         Press         Density         Volume    
         0   300           -3023.3495      33.465452     -2989.884      -1794.3016      2.51828        15372.09     
        31   300           -3084.3825      33.465452     -3050.9171     -36428.498      2.51828        15372.09     
Loop time of 0.135226 on 1 procs for 31 steps with 864 atoms

99.3% CPU use with 1 MPI tasks x 1 OpenMP threads

Minimization stats:
  Stopping criterion = energy tolerance
  Energy initial, next-to-last, final = 
     -3023.34948125877  -3084.38251782111  -3084.38251798752
  Force two-norm initial, final = 17.924496 0.00060113206
  Force max component initial, final = 1.4170525 5.7660117e-05
  Final line search alpha, max atom move = 1 5.7660117e-05
  Iterations, force evaluations = 31 53

MPI task timing breakdown:
Section |  min time  |  avg time  |  max time  |%varavg| %total
---------------------------------------------------------------
Pair    | 0.1341     | 0.1341     | 0.1341     |   0.0 | 99.17
Neigh   | 0          | 0          | 0          |   0.0 |  0.00
Comm    | 0.00060915 | 0.00060915 | 0.00060915 |   0.0 |  0.45
Output  | 0          | 0          | 0          |   0.0 |  0.00
Modify  | 0          | 0          | 0          |   0.0 |  0.00
Other   |            | 0.000514   |            |       |  0.38

Nlocal:            864 ave         864 max         864 min
Histogram: 1 0 0 0 0 0 0 0 0 0
Nghost:           6949 ave        6949 max        6949 min
Histogram: 1 0 0 0 0 0 0 0 0 0
Neighs:         232682 ave      232682 max      232682 min
Histogram: 1 0 0 0 0 0 0 0 0 0

Total # of neighbors = 232682
Ave neighs/atom = 269.30787
Neighbor list builds = 0
Dangerous builds = 0
Setting up Verlet run ...
  Unit style    : metal
  Current step  : 0
  Time step     : 0.001
Per MPI rank memory allocation (min/avg/max) = 4.406 | 4.406 | 4.406 Mbytes
   Step          Temp          PotEng         KinEng         TotEng         Press         Density         Volume    
         0   300           -3084.3825      33.465452     -3050.9171     -36428.498      2.51828        15372.09     
       100   122.77318     -3064.3759      13.695533     -3050.6803     -23066.746      2.51828        15372.09     
       200   147.85963     -3066.4154      16.493964     -3049.9214     -24511.774      2.51828        15372.09     
       300   164.02055     -3067.5545      18.29674      -3049.2578     -25168.254      2.51828        15372.09     
       400   149.5848      -3065.1693      16.686409     -3048.4829     -23833.509      2.51828        15372.09     
       500   168.62071     -3066.3742      18.809894     -3047.5643     -24670.77       2.51828        15372.09     
       600   162.30548     -3064.7136      18.105421     -3046.6082     -23161.404      2.51828        15372.09     
       700   180.85572     -3065.7175      20.174727     -3045.5428     -24412.243      2.51828        15372.09     
       800   161.97065     -3062.5674      18.06807      -3044.4993     -21772.943      2.51828        15372.09     
       900   174.57066     -3062.8014      19.47362      -3043.3278     -22528.677      2.51828        15372.09     
      1000   196.40146     -3064.0756      21.908879     -3042.1667     -23087.353      2.51828        15372.09     
      1100   191.12399     -3062.2619      21.320168     -3040.9417     -21606.064      2.51828        15372.09     
      1200   202.96427     -3062.3387      22.64097      -3039.6978     -22129.199      2.51828        15372.09     
      1300   184.6946      -3059.001       20.602961     -3038.398      -20159.813      2.51828        15372.09     
      1400   211.86179     -3060.6716      23.633501     -3037.0381     -20970.68       2.51828        15372.09     
      1500   215.54086     -3059.7828      24.043908     -3035.7389     -20223.134      2.51828        15372.09     
      1600   215.96609     -3058.4242      24.091342     -3034.3329     -19441.941      2.51828        15372.09     
      1700   236.62645     -3059.3401      26.396037     -3032.9441     -19811.461      2.51828        15372.09     
      1800   234.08037     -3057.6646      26.112018     -3031.5525     -18592.832      2.51828        15372.09     
      1900   241.16304     -3057.0498      26.9021       -3030.1477     -18271.477      2.51828        15372.09     
      2000   243.87304     -3055.9272      27.204404     -3028.7228     -17678.53       2.51828        15372.09     
      2100   254.75895     -3055.7294      28.418744     -3027.3107     -17485.092      2.51828        15372.09     
      2200   246.90329     -3053.4686      27.542434     -3025.9262     -16303.002      2.51828        15372.09     
      2300   268.05619     -3054.4132      29.902071     -3024.5111     -16716.886      2.51828        15372.09     
      2400   264.41221     -3052.655       29.49558      -3023.1594     -15846.052      2.51828        15372.09     
      2500   276.90967     -3052.7074      30.88969      -3021.8177     -15907.778      2.51828        15372.09     
      2600   282.20247     -3052.0074      31.48011      -3020.5273     -15332.664      2.51828        15372.09     
      2700   279.44633     -3050.4688      31.172659     -3019.2961     -14441.191      2.51828        15372.09     
      2800   288.27942     -3050.2552      32.158003     -3018.0972     -14164.441      2.51828        15372.09     
      2900   290.57447     -3049.3798      32.41402      -3016.9658     -13900.321      2.51828        15372.09     
      3000   300.35342     -3049.401       33.504876     -3015.8961     -13954.036      2.51828        15372.09     
      3100   298.15233     -3048.2252      33.259341     -3014.9658     -13037.812      2.51828        15372.09     
      3200   309.92796     -3048.6605      34.57293      -3014.0876     -13264.829      2.51828        15372.09     
      3300   314.28392     -3048.3933      35.058844     -3013.3345     -13064.278      2.51828        15372.09     
      3400   313.40679     -3047.6731      34.961        -3012.7121     -12814.128      2.51828        15372.09     
      3500   312.85197     -3047.1425      34.899108     -3012.2434     -12598.648      2.51828        15372.09     
      3600   313.9878      -3046.9437      35.025812     -3011.9179     -12508.533      2.51828        15372.09     
      3700   327.77382     -3048.3095      36.563663     -3011.7459     -13160.84       2.51828        15372.09     
      3800   309.57279     -3046.2975      34.533311     -3011.7642     -12306.373      2.51828        15372.09     
      3900   323.81645     -3048.0491      36.122212     -3011.9269     -13025.704      2.51828        15372.09     
      4000   319.81696     -3047.9677      35.676063     -3012.2917     -12996.956      2.51828        15372.09     
      4100   320.23811     -3048.4928      35.723043     -3012.7697     -13161.4        2.51828        15372.09     
      4200   299.71474     -3046.8086      33.43363      -3013.375      -12704.898--------------------------------------------------------------------------
MPI_ABORT was invoked on rank 0 in communicator MPI_COMM_WORLD
with errorcode 1.

NOTE: invoking MPI_ABORT causes Open MPI to kill all MPI processes.
You may or may not see output from other processes, depending on
exactly when Open MPI kills them.
--------------------------------------------------------------------------
