LAMMPS (7 Feb 2024 - Update 1)
OMP_NUM_THREADS environment is not set. Defaulting to 1 thread. (src/comm.cpp:98)
  using 1 OpenMP thread(s) per MPI task
Reading data file ...
  orthogonal box = (-0.30919023 -0.30919023 -0.30919023) to (24.55519 24.55519 24.55519)
  1 by 1 by 1 MPI processor grid
  reading atoms ...
  864 atoms
  reading velocities ...
  864 velocities
  read_data CPU = 0.002 seconds
Reading eam/alloy potential file /usr/share/lammps/potentials/Al_zhou.eam.alloy with DATE: 2007-10-12
Temperature PotentialEnergyPerAtom(eV)
Running temperature 300
Neighbor list info ...
  update: every = 1 steps, delay = 5 steps, check = yes
  max neighbors/atom: 2000, page size: 100000
  master list distance cutoff = 13.1025
  ghost atom cutoff = 13.1025
  binsize = 6.55125, bins = 4 4 4
  1 neighbor lists, perpetual/occasional/extra = 1 0 0
  (1) pair eam/alloy, perpetual
      attributes: half, newton on
      pair build: half/bin/atomonly/newton
      stencil: half/bin/3d
      bin: standard
Setting up Verlet run ...
  Unit style    : metal
  Current step  : 0
  Time step     : 0.001
Per MPI rank memory allocation (min/avg/max) = 4.531 | 4.531 | 4.531 Mbytes
   Step          Temp          PotEng         KinEng         TotEng         Press         Density         Volume    
         0   300           -3023.3495      33.465452     -2989.884      -1794.3016      2.51828        15372.09     
       100   449.45866     -3040.6416      50.137791     -2990.5038     -8600.4535      2.51828        15372.09     
       200   390.05539     -3035.6915      43.511266     -2992.1802     -6169.2529      2.51828        15372.09     
       300   403.46686     -3038.6375      45.007335     -2993.6302     -7972.5474      2.51828        15372.09     
       400   381.16635     -3037.5959      42.51968      -2995.0763     -7586.2163      2.51828        15372.09     
       500   370.80027     -3038.0251      41.363328     -2996.6618     -7711.4174      2.51828        15372.09     
       600   371.46078     -3039.7571      41.437009     -2998.3201     -8404.5947      2.51828        15372.09     
       700   380.11752     -3042.3983      42.402682     -2999.9956     -9867.607       2.51828        15372.09     
       800   362.82294     -3042.0878      40.473445     -3001.6143     -9601.6851      2.51828        15372.09     
       900   344.74036     -3041.6777      38.456306     -3003.2214     -9515.7191      2.51828        15372.09     
      1000   355.98945     -3044.4281      39.711159     -3004.7169     -10939.135      2.51828        15372.09     
      1100   335.08        -3043.5539      37.378678     -3006.1752     -10369.508      2.51828        15372.09     
      1200   336.7083      -3045.1031      37.560318     -3007.5427     -11386.35       2.51828        15372.09     
      1300   333.9928      -3046.1652      37.257399     -3008.9078     -11778.741      2.51828        15372.09     
      1400   328.92622     -3046.8165      36.692215     -3010.1243     -12222.738      2.51828        15372.09     
      1500   326.08283     -3047.6724      36.375031     -3011.2974     -12491.444      2.51828        15372.09     
      1600   318.7019      -3047.9402      35.551676     -3012.3886     -12834.204      2.51828        15372.09     
      1700   311.37662     -3048.1327      34.734531     -3013.3982     -13276.343      2.51828        15372.09     
      1800   309.9266      -3048.942       34.572779     -3014.3692     -13279.021      2.51828        15372.09     
      1900   302.58968     -3048.9613      33.754334     -3015.207      -13363.927      2.51828        15372.09     
      2000   308.8583      -3050.4118      34.453609     -3015.9581     -14223.703      2.51828        15372.09     
      2100   305.52137     -3050.7184      34.081368     -3016.6371     -14348.247      2.51828        15372.09     
      2200   288.65874     -3049.453       32.200317     -3017.2527     -14112.221      2.51828        15372.09     
      2300   285.17149     -3049.5753      31.811309     -3017.764      -13894.117      2.51828        15372.09     
      2400   298.25951     -3051.4383      33.271297     -3018.167      -15177.089      2.51828        15372.09     
      2500   288.33107     -3050.6628      32.163765     -3018.499      -14736.424      2.51828        15372.09     
      2600   287.30955     -3050.7896      32.049813     -3018.7398     -14644.37       2.51828        15372.09     
      2700   294.28181     -3051.6996      32.827579     -3018.8721     -15058.442      2.51828        15372.09     
      2800   275.52219     -3049.6488      30.734915     -3018.9139     -14244.864      2.51828        15372.09     
      2900   283.88168     -3050.5045      31.667429     -3018.8371     -14577.503      2.51828        15372.09     
      3000   293.78127     -3051.4201      32.771743     -3018.6484     -14877.745      2.51828        15372.09     
Loop time of 7.47435 on 1 procs for 3000 steps with 864 atoms

Performance: 34.679 ns/day, 0.692 hours/ns, 401.373 timesteps/s, 346.786 katom-step/s
99.6% CPU use with 1 MPI tasks x 1 OpenMP threads

MPI task timing breakdown:
Section |  min time  |  avg time  |  max time  |%varavg| %total
---------------------------------------------------------------
Pair    | 7.4135     | 7.4135     | 7.4135     |   0.0 | 99.19
Neigh   | 0          | 0          | 0          |   0.0 |  0.00
Comm    | 0.033108   | 0.033108   | 0.033108   |   0.0 |  0.44
Output  | 0.00035001 | 0.00035001 | 0.00035001 |   0.0 |  0.00
Modify  | 0.017402   | 0.017402   | 0.017402   |   0.0 |  0.23
Other   |            | 0.009998   |            |       |  0.13

Nlocal:            864 ave         864 max         864 min
Histogram: 1 0 0 0 0 0 0 0 0 0
Nghost:           6949 ave        6949 max        6949 min
Histogram: 1 0 0 0 0 0 0 0 0 0
Neighs:         232682 ave      232682 max      232682 min
Histogram: 1 0 0 0 0 0 0 0 0 0

Total # of neighbors = 232682
Ave neighs/atom = 269.30787
Neighbor list builds = 0
Dangerous builds = 0
Setting up Verlet run ...
  Unit style    : metal
  Current step  : 3000
  Time step     : 0.001
Per MPI rank memory allocation (min/avg/max) = 4.531 | 4.531 | 4.531 Mbytes
   Step          Temp          PotEng         KinEng         TotEng         Press         Density         Volume    
      3000   293.78127     -3051.4201      32.771743     -3018.6484     -14877.745      2.51828        15372.09     
      3100   287.55338     -3050.6651      32.077012     -3018.5881     -14423.554      2.51828        15372.09     
      3200   293.28541     -3051.1225      32.716429     -3018.4061     -14828.341      2.51828        15372.09     
      3300   285.79002     -3050.0214      31.880307     -3018.1411     -14080.384      2.51828        15372.09     
      3400   298.23896     -3051.0293      33.269005     -3017.7603     -14655.738      2.51828        15372.09     
      3500   297.34849     -3050.479       33.169671     -3017.3093     -14463.079      2.51828        15372.09     
      3600   292.54779     -3049.4719      32.634147     -3016.8378     -13982          2.51828        15372.09     
      3700   295.84763     -3049.4158      33.002249     -3016.4135     -13970.969      2.51828        15372.09     
      3800   301.01023     -3049.6668      33.578144     -3016.0887     -14122.432      2.51828        15372.09     
      3900   312.62754     -3050.7261      34.874073     -3015.852      -14437.584      2.51828        15372.09     
      4000   297.17035     -3048.8463      33.1498       -3015.6965     -13917.744      2.51828        15372.09     
      4100   301.22557     -3049.2028      33.602166     -3015.6007     -13552.339      2.51828        15372.09     
      4200   308.10682     -3049.9102      34.369779     -3015.5404     -14057.31       2.51828        15372.09     
      4300   302.24691     -3049.2326      33.716098     -3015.5165     -13654.813      2.51828        15372.09     
      4400   295.37528     -3048.4576      32.949557     -3015.5081     -13163.052      2.51828        15372.09     
      4500   298.27252     -3048.7775      33.272749     -3015.5047     -13477.446      2.51828        15372.09     
      4600   290.01618     -3047.8649      32.351742     -3015.5131     -13103.156      2.51828        15372.09     
      4700   312.73468     -3050.4021      34.886024     -3015.5161     -14450.16       2.51828        15372.09     
      4800   300.98641     -3049.1605      33.575487     -3015.585      -13365.922      2.51828        15372.09     
      4900   299.63228     -3049.0714      33.424432     -3015.647      -13554.125      2.51828        15372.09     
      5000   311.80002     -3050.4981      34.781762     -3015.7163     -14393.482      2.51828        15372.09     
Loop time of 5.02128 on 1 procs for 2000 steps with 864 atoms

Performance: 34.414 ns/day, 0.697 hours/ns, 398.304 timesteps/s, 344.135 katom-step/s
99.5% CPU use with 1 MPI tasks x 1 OpenMP threads

MPI task timing breakdown:
Section |  min time  |  avg time  |  max time  |%varavg| %total
---------------------------------------------------------------
Pair    | 4.9813     | 4.9813     | 4.9813     |   0.0 | 99.20
Neigh   | 0          | 0          | 0          |   0.0 |  0.00
Comm    | 0.022135   | 0.022135   | 0.022135   |   0.0 |  0.44
Output  | 0.0002075  | 0.0002075  | 0.0002075  |   0.0 |  0.00
Modify  | 0.011395   | 0.011395   | 0.011395   |   0.0 |  0.23
Other   |            | 0.006265   |            |       |  0.12

Nlocal:            864 ave         864 max         864 min
Histogram: 1 0 0 0 0 0 0 0 0 0
Nghost:           6949 ave        6949 max        6949 min
Histogram: 1 0 0 0 0 0 0 0 0 0
Neighs:         233544 ave      233544 max      233544 min
Histogram: 1 0 0 0 0 0 0 0 0 0

Total # of neighbors = 233544
Ave neighs/atom = 270.30556
Neighbor list builds = 0
Dangerous builds = 0
ERROR: Per-atom energy was not tallied on needed timestep (src/compute_pe_atom.cpp:97)
Last command: ${T
