
     Program PWSCF v.7.5 starts on  6Mar2026 at  2:51:57 

     This program is part of the open-source Quantum ESPRESSO suite
     for quantum simulation of materials; please cite
         "P. Giannozzi et al., J. Phys.:Condens. Matter 21 395502 (2009);
         "P. Giannozzi et al., J. Phys.:Condens. Matter 29 465901 (2017);
         "P. Giannozzi et al., J. Chem. Phys. 152 154105 (2020);
          URL http://www.quantum-espresso.org", 
     in publications or presentations arising from this work. More details at
     http://www.quantum-espresso.org/quote

     Parallel version (MPI & OpenMP), running on       2 processor cores
     Number of MPI processes:                 2
     Threads/MPI process:                     1

     MPI processes distributed on     1 nodes
     5193 MiB available memory on the printing compute node when the environment starts

     Reading input from pw.in
Warning: card &CELL ignored

     Current dimensions of program PWSCF are:
     Max number of different atomic species (ntypx) = 10
     Max number of k-points (npk) =  40000
     Max angular momentum in pseudopotentials (lmaxx) =  4
     file Cu.pbe-dn-kjpaw_psl.1.0.0.UPF: wavefunction(s)  4S 3D renormalized

     R & G space division:  proc/nbgrp/npool/nimage =       2
     Subspace diagonalization in iterative solution of the eigenvalue problem:
     a serial algorithm will be used


     Parallelization info
     --------------------
     sticks:   dense  smooth     PW     G-vecs:    dense   smooth      PW
     Min         219     111     42                 3115     1114     264
     Max         220     112     43                 3116     1115     267
     Sum         439     223     85                 6231     2229     531

     Using Slab Decomposition



     bravais-lattice index     =            2
     lattice parameter (alat)  =       6.8314  a.u.
     unit-cell volume          =      79.7007 (a.u.)^3
     number of atoms/cell      =            1
     number of atomic types    =            1
     number of electrons       =        11.00
     number of Kohn-Sham states=           10
     kinetic-energy cutoff     =      35.0000  Ry
     charge density cutoff     =     280.0000  Ry
     scf convergence threshold =      1.0E-08
     mixing beta               =       0.7000
     number of iterations used =            8  plain     mixing
     Exchange-correlation= SLA  PW   PBX  PBC
                           (   1   4   3   4   0   0   0)

     celldm(1)=   6.831363  celldm(2)=   0.000000  celldm(3)=   0.000000
     celldm(4)=   0.000000  celldm(5)=   0.000000  celldm(6)=   0.000000

     crystal axes: (cart. coord. in units of alat)
               a(1) = (  -0.500000   0.000000   0.500000 )  
               a(2) = (   0.000000   0.500000   0.500000 )  
               a(3) = (  -0.500000   0.500000   0.000000 )  

     reciprocal axes: (cart. coord. in units 2 pi/alat)
               b(1) = ( -1.000000 -1.000000  1.000000 )  
               b(2) = (  1.000000  1.000000  1.000000 )  
               b(3) = ( -1.000000  1.000000 -1.000000 )  


     PseudoPot. # 1 for Cu read from file:
     ./Cu.pbe-dn-kjpaw_psl.1.0.0.UPF
     MD5 check sum: cfffd1f38ee05704b3e17f46f1730a6f
     Pseudo is Projector augmented-wave + core cor, Zval = 11.0
     Generated using &quot;atomic&quot; code by A. Dal Corso  v.6.3
     Shape of augmentation charge: PSQ
     Using radial grid of 1199 points,  6 beta functions with: 
                l(1) =   0
                l(2) =   0
                l(3) =   1
                l(4) =   1
                l(5) =   2
                l(6) =   2
     Q(r) pseudized with 0 coefficients 


     atomic species   valence    mass     pseudopotential
     Cu               11.00    63.54600     Cu( 1.00)

     48 Sym. Ops., with inversion, found


                                    s                        frac. trans.

      isym =  1     identity                                     

 cryst.   s( 1) = (     1          0          0      )
                  (     0          1          0      )
                  (     0          0          1      )

 cart.    s( 1) = (  1.0000000  0.0000000  0.0000000 )
                  (  0.0000000  1.0000000  0.0000000 )
                  (  0.0000000  0.0000000  1.0000000 )


      isym =  2     180 deg rotation - cart. axis [0,0,1]        

 cryst.   s( 2) = (     0          1         -1      )
                  (     1          0         -1      )
                  (     0          0         -1      )

 cart.    s( 2) = ( -1.0000000  0.0000000  0.0000000 )
                  (  0.0000000 -1.0000000  0.0000000 )
                  (  0.0000000  0.0000000  1.0000000 )


      isym =  3     180 deg rotation - cart. axis [0,1,0]        

 cryst.   s( 3) = (    -1          0          0      )
                  (    -1          0          1      )
                  (    -1          1          0      )

 cart.    s( 3) = ( -1.0000000  0.0000000  0.0000000 )
                  (  0.0000000  1.0000000  0.0000000 )
                  (  0.0000000  0.0000000 -1.0000000 )


      isym =  4     180 deg rotation - cart. axis [1,0,0]        

 cryst.   s( 4) = (     0         -1          1      )
                  (     0         -1          0      )
                  (     1         -1          0      )

 cart.    s( 4) = (  1.0000000  0.0000000  0.0000000 )
                  (  0.0000000 -1.0000000  0.0000000 )
                  (  0.0000000  0.0000000 -1.0000000 )


      isym =  5     180 deg rotation - cart. axis [1,1,0]        

 cryst.   s( 5) = (     0         -1          0      )
                  (    -1          0          0      )
                  (     0          0         -1      )

 cart.    s( 5) = (  0.0000000  1.0000000  0.0000000 )
                  (  1.0000000  0.0000000  0.0000000 )
                  (  0.0000000  0.0000000 -1.0000000 )


      isym =  6     180 deg rotation - cart. axis [1,-1,0]       

 cryst.   s( 6) = (    -1          0          1      )
                  (     0         -1          1      )
                  (     0          0          1      )

 cart.    s( 6) = (  0.0000000 -1.0000000  0.0000000 )
                  ( -1.0000000  0.0000000  0.0000000 )
                  (  0.0000000  0.0000000 -1.0000000 )


      isym =  7      90 deg rotation - cart. axis [0,0,-1]       

 cryst.   s( 7) = (     0          1          0      )
                  (     0          1         -1      )
                  (    -1          1          0      )

 cart.    s( 7) = (  0.0000000  1.0000000  0.0000000 )
                  ( -1.0000000  0.0000000  0.0000000 )
                  (  0.0000000  0.0000000  1.0000000 )


      isym =  8      90 deg rotation - cart. axis [0,0,1]        

 cryst.   s( 8) = (     1          0         -1      )
                  (     1          0          0      )
                  (     1         -1          0      )

 cart.    s( 8) = (  0.0000000 -1.0000000  0.0000000 )
                  (  1.0000000  0.0000000  0.0000000 )
                  (  0.0000000  0.0000000  1.0000000 )


      isym =  9     180 deg rotation - cart. axis [1,0,1]        

 cryst.   s( 9) = (    -1          0          0      )
                  (     0          0         -1      )
                  (     0         -1          0      )

 cart.    s( 9) = (  0.0000000  0.0000000  1.0000000 )
                  (  0.0000000 -1.0000000  0.0000000 )
                  (  1.0000000  0.0000000  0.0000000 )


      isym = 10     180 deg rotation - cart. axis [-1,0,1]       

 cryst.   s(10) = (     1          0          0      )
                  (     1         -1          0      )
                  (     1          0         -1      )

 cart.    s(10) = (  0.0000000  0.0000000 -1.0000000 )
                  (  0.0000000 -1.0000000  0.0000000 )
                  ( -1.0000000  0.0000000  0.0000000 )


      isym = 11      90 deg rotation - cart. axis [0,1,0]        

 cryst.   s(11) = (     0          1         -1      )
                  (    -1          1          0      )
                  (     0          1          0      )

 cart.    s(11) = (  0.0000000  0.0000000  1.0000000 )
                  (  0.0000000  1.0000000  0.0000000 )
                  ( -1.0000000  0.0000000  0.0000000 )


      isym = 12      90 deg rotation - cart. axis [0,-1,0]       

 cryst.   s(12) = (     0         -1          1      )
                  (     0          0          1      )
                  (    -1          0          1      )

 cart.    s(12) = (  0.0000000  0.0000000 -1.0000000 )
                  (  0.0000000  1.0000000  0.0000000 )
                  (  1.0000000  0.0000000  0.0000000 )


      isym = 13     180 deg rotation - cart. axis [0,1,1]        

 cryst.   s(13) = (    -1          1          0      )
                  (     0          1          0      )
                  (     0          1         -1      )

 cart.    s(13) = ( -1.0000000  0.0000000  0.0000000 )
                  (  0.0000000  0.0000000  1.0000000 )
                  (  0.0000000  1.0000000  0.0000000 )


      isym = 14     180 deg rotation - cart. axis [0,1,-1]       

 cryst.   s(14) = (     0          0         -1      )
                  (     0         -1          0      )
                  (    -1          0          0      )

 cart.    s(14) = ( -1.0000000  0.0000000  0.0000000 )
                  (  0.0000000  0.0000000 -1.0000000 )
                  (  0.0000000 -1.0000000  0.0000000 )


      isym = 15      90 deg rotation - cart. axis [-1,0,0]       

 cryst.   s(15) = (     0          0          1      )
                  (    -1          0          1      )
                  (     0         -1          1      )

 cart.    s(15) = (  1.0000000  0.0000000  0.0000000 )
                  (  0.0000000  0.0000000  1.0000000 )
                  (  0.0000000 -1.0000000  0.0000000 )


      isym = 16      90 deg rotation - cart. axis [1,0,0]        

 cryst.   s(16) = (     1         -1          0      )
                  (     1          0         -1      )
                  (     1          0          0      )

 cart.    s(16) = (  1.0000000  0.0000000  0.0000000 )
                  (  0.0000000  0.0000000 -1.0000000 )
                  (  0.0000000  1.0000000  0.0000000 )


      isym = 17     120 deg rotation - cart. axis [-1,-1,-1]     

 cryst.   s(17) = (    -1          0          1      )
                  (    -1          1          0      )
                  (    -1          0          0      )

 cart.    s(17) = (  0.0000000  1.0000000  0.0000000 )
                  (  0.0000000  0.0000000  1.0000000 )
                  (  1.0000000  0.0000000  0.0000000 )


      isym = 18     120 deg rotation - cart. axis [-1,1,1]       

 cryst.   s(18) = (     0          1          0      )
                  (     0          0          1      )
                  (     1          0          0      )

 cart.    s(18) = (  0.0000000 -1.0000000  0.0000000 )
                  (  0.0000000  0.0000000  1.0000000 )
                  ( -1.0000000  0.0000000  0.0000000 )


      isym = 19     120 deg rotation - cart. axis [1,1,-1]       

 cryst.   s(19) = (     1          0         -1      )
                  (     0          0         -1      )
                  (     0          1         -1      )

 cart.    s(19) = (  0.0000000  1.0000000  0.0000000 )
                  (  0.0000000  0.0000000 -1.0000000 )
                  ( -1.0000000  0.0000000  0.0000000 )


      isym = 20     120 deg rotation - cart. axis [1,-1,1]       

 cryst.   s(20) = (     0         -1          0      )
                  (     1         -1          0      )
                  (     0         -1          1      )

 cart.    s(20) = (  0.0000000 -1.0000000  0.0000000 )
                  (  0.0000000  0.0000000 -1.0000000 )
                  (  1.0000000  0.0000000  0.0000000 )


      isym = 21     120 deg rotation - cart. axis [1,1,1]        

 cryst.   s(21) = (     0          0         -1      )
                  (     0          1         -1      )
                  (     1          0         -1      )

 cart.    s(21) = (  0.0000000  0.0000000  1.0000000 )
                  (  1.0000000  0.0000000  0.0000000 )
                  (  0.0000000  1.0000000  0.0000000 )


      isym = 22     120 deg rotation - cart. axis [-1,1,-1]      

 cryst.   s(22) = (    -1          1          0      )
                  (    -1          0          0      )
                  (    -1          0          1      )

 cart.    s(22) = (  0.0000000  0.0000000  1.0000000 )
                  ( -1.0000000  0.0000000  0.0000000 )
                  (  0.0000000 -1.0000000  0.0000000 )


      isym = 23     120 deg rotation - cart. axis [1,-1,-1]      

 cryst.   s(23) = (     0          0          1      )
                  (     1          0          0      )
                  (     0          1          0      )

 cart.    s(23) = (  0.0000000  0.0000000 -1.0000000 )
                  ( -1.0000000  0.0000000  0.0000000 )
                  (  0.0000000  1.0000000  0.0000000 )


      isym = 24     120 deg rotation - cart. axis [-1,-1,1]      

 cryst.   s(24) = (     1         -1          0      )
                  (     0         -1          1      )
                  (     0         -1          0      )

 cart.    s(24) = (  0.0000000  0.0000000 -1.0000000 )
                  (  1.0000000  0.0000000  0.0000000 )
                  (  0.0000000 -1.0000000  0.0000000 )


      isym = 25     inversion                                    

 cryst.   s(25) = (    -1          0          0      )
                  (     0         -1          0      )
                  (     0          0         -1      )

 cart.    s(25) = ( -1.0000000  0.0000000  0.0000000 )
                  (  0.0000000 -1.0000000  0.0000000 )
                  (  0.0000000  0.0000000 -1.0000000 )


      isym = 26     inv. 180 deg rotation - cart. axis [0,0,1]   

 cryst.   s(26) = (     0         -1          1      )
                  (    -1          0          1      )
                  (     0          0          1      )

 cart.    s(26) = (  1.0000000  0.0000000  0.0000000 )
                  (  0.0000000  1.0000000  0.0000000 )
                  (  0.0000000  0.0000000 -1.0000000 )


      isym = 27     inv. 180 deg rotation - cart. axis [0,1,0]   

 cryst.   s(27) = (     1          0          0      )
                  (     1          0         -1      )
                  (     1         -1          0      )

 cart.    s(27) = (  1.0000000  0.0000000  0.0000000 )
                  (  0.0000000 -1.0000000  0.0000000 )
                  (  0.0000000  0.0000000  1.0000000 )


      isym = 28     inv. 180 deg rotation - cart. axis [1,0,0]   

 cryst.   s(28) = (     0          1         -1      )
                  (     0          1          0      )
                  (    -1          1          0      )

 cart.    s(28) = ( -1.0000000  0.0000000  0.0000000 )
                  (  0.0000000  1.0000000  0.0000000 )
                  (  0.0000000  0.0000000  1.0000000 )


      isym = 29     inv. 180 deg rotation - cart. axis [1,1,0]   

 cryst.   s(29) = (     0          1          0      )
                  (     1          0          0      )
                  (     0          0          1      )

 cart.    s(29) = (  0.0000000 -1.0000000  0.0000000 )
                  ( -1.0000000  0.0000000  0.0000000 )
                  (  0.0000000  0.0000000  1.0000000 )


      isym = 30     inv. 180 deg rotation - cart. axis [1,-1,0]  

 cryst.   s(30) = (     1          0         -1      )
                  (     0          1         -1      )
                  (     0          0         -1      )

 cart.    s(30) = (  0.0000000  1.0000000  0.0000000 )
                  (  1.0000000  0.0000000  0.0000000 )
                  (  0.0000000  0.0000000  1.0000000 )


      isym = 31     inv.  90 deg rotation - cart. axis [0,0,-1]  

 cryst.   s(31) = (     0         -1          0      )
                  (     0         -1          1      )
                  (     1         -1          0      )

 cart.    s(31) = (  0.0000000 -1.0000000  0.0000000 )
                  (  1.0000000  0.0000000  0.0000000 )
                  (  0.0000000  0.0000000 -1.0000000 )


      isym = 32     inv.  90 deg rotation - cart. axis [0,0,1]   

 cryst.   s(32) = (    -1          0          1      )
                  (    -1          0          0      )
                  (    -1          1          0      )

 cart.    s(32) = (  0.0000000  1.0000000  0.0000000 )
                  ( -1.0000000  0.0000000  0.0000000 )
                  (  0.0000000  0.0000000 -1.0000000 )


      isym = 33     inv. 180 deg rotation - cart. axis [1,0,1]   

 cryst.   s(33) = (     1          0          0      )
                  (     0          0          1      )
                  (     0          1          0      )

 cart.    s(33) = (  0.0000000  0.0000000 -1.0000000 )
                  (  0.0000000  1.0000000  0.0000000 )
                  ( -1.0000000  0.0000000  0.0000000 )


      isym = 34     inv. 180 deg rotation - cart. axis [-1,0,1]  

 cryst.   s(34) = (    -1          0          0      )
                  (    -1          1          0      )
                  (    -1          0          1      )

 cart.    s(34) = (  0.0000000  0.0000000  1.0000000 )
                  (  0.0000000  1.0000000  0.0000000 )
                  (  1.0000000  0.0000000  0.0000000 )


      isym = 35     inv.  90 deg rotation - cart. axis [0,1,0]   

 cryst.   s(35) = (     0         -1          1      )
                  (     1         -1          0      )
                  (     0         -1          0      )

 cart.    s(35) = (  0.0000000  0.0000000 -1.0000000 )
                  (  0.0000000 -1.0000000  0.0000000 )
                  (  1.0000000  0.0000000  0.0000000 )


      isym = 36     inv.  90 deg rotation - cart. axis [0,-1,0]  

 cryst.   s(36) = (     0          1         -1      )
                  (     0          0         -1      )
                  (     1          0         -1      )

 cart.    s(36) = (  0.0000000  0.0000000  1.0000000 )
                  (  0.0000000 -1.0000000  0.0000000 )
                  ( -1.0000000  0.0000000  0.0000000 )


      isym = 37     inv. 180 deg rotation - cart. axis [0,1,1]   

 cryst.   s(37) = (     1         -1          0      )
                  (     0         -1          0      )
                  (     0         -1          1      )

 cart.    s(37) = (  1.0000000  0.0000000  0.0000000 )
                  (  0.0000000  0.0000000 -1.0000000 )
                  (  0.0000000 -1.0000000  0.0000000 )


      isym = 38     inv. 180 deg rotation - cart. axis [0,1,-1]  

 cryst.   s(38) = (     0          0          1      )
                  (     0          1          0      )
                  (     1          0          0      )

 cart.    s(38) = (  1.0000000  0.0000000  0.0000000 )
                  (  0.0000000  0.0000000  1.0000000 )
                  (  0.0000000  1.0000000  0.0000000 )


      isym = 39     inv.  90 deg rotation - cart. axis [-1,0,0]  

 cryst.   s(39) = (     0          0         -1      )
                  (     1          0         -1      )
                  (     0          1         -1      )

 cart.    s(39) = ( -1.0000000  0.0000000  0.0000000 )
                  (  0.0000000  0.0000000 -1.0000000 )
                  (  0.0000000  1.0000000  0.0000000 )


      isym = 40     inv.  90 deg rotation - cart. axis [1,0,0]   

 cryst.   s(40) = (    -1          1          0      )
                  (    -1          0          1      )
                  (    -1          0          0      )

 cart.    s(40) = ( -1.0000000  0.0000000  0.0000000 )
                  (  0.0000000  0.0000000  1.0000000 )
                  (  0.0000000 -1.0000000  0.0000000 )


      isym = 41     inv. 120 deg rotation - cart. axis [-1,-1,-1]

 cryst.   s(41) = (     1          0         -1      )
                  (     1         -1          0      )
                  (     1          0          0      )

 cart.    s(41) = (  0.0000000 -1.0000000  0.0000000 )
                  (  0.0000000  0.0000000 -1.0000000 )
                  ( -1.0000000  0.0000000  0.0000000 )


      isym = 42     inv. 120 deg rotation - cart. axis [-1,1,1]  

 cryst.   s(42) = (     0         -1          0      )
                  (     0          0         -1      )
                  (    -1          0          0      )

 cart.    s(42) = (  0.0000000  1.0000000  0.0000000 )
                  (  0.0000000  0.0000000 -1.0000000 )
                  (  1.0000000  0.0000000  0.0000000 )


      isym = 43     inv. 120 deg rotation - cart. axis [1,1,-1]  

 cryst.   s(43) = (    -1          0          1      )
                  (     0          0          1      )
                  (     0         -1          1      )

 cart.    s(43) = (  0.0000000 -1.0000000  0.0000000 )
                  (  0.0000000  0.0000000  1.0000000 )
                  (  1.0000000  0.0000000  0.0000000 )


      isym = 44     inv. 120 deg rotation - cart. axis [1,-1,1]  

 cryst.   s(44) = (     0          1          0      )
                  (    -1          1          0      )
                  (     0          1         -1      )

 cart.    s(44) = (  0.0000000  1.0000000  0.0000000 )
                  (  0.0000000  0.0000000  1.0000000 )
                  ( -1.0000000  0.0000000  0.0000000 )


      isym = 45     inv. 120 deg rotation - cart. axis [1,1,1]   

 cryst.   s(45) = (     0          0          1      )
                  (     0         -1          1      )
                  (    -1          0          1      )

 cart.    s(45) = (  0.0000000  0.0000000 -1.0000000 )
                  ( -1.0000000  0.0000000  0.0000000 )
                  (  0.0000000 -1.0000000  0.0000000 )


      isym = 46     inv. 120 deg rotation - cart. axis [-1,1,-1] 

 cryst.   s(46) = (     1         -1          0      )
                  (     1          0          0      )
                  (     1          0         -1      )

 cart.    s(46) = (  0.0000000  0.0000000 -1.0000000 )
                  (  1.0000000  0.0000000  0.0000000 )
                  (  0.0000000  1.0000000  0.0000000 )


      isym = 47     inv. 120 deg rotation - cart. axis [1,-1,-1] 

 cryst.   s(47) = (     0          0         -1      )
                  (    -1          0          0      )
                  (     0         -1          0      )

 cart.    s(47) = (  0.0000000  0.0000000  1.0000000 )
                  (  1.0000000  0.0000000  0.0000000 )
                  (  0.0000000 -1.0000000  0.0000000 )


      isym = 48     inv. 120 deg rotation - cart. axis [-1,-1,1] 

 cryst.   s(48) = (    -1          1          0      )
                  (     0          1         -1      )
                  (     0          1          0      )

 cart.    s(48) = (  0.0000000  0.0000000  1.0000000 )
                  ( -1.0000000  0.0000000  0.0000000 )
                  (  0.0000000  1.0000000  0.0000000 )


     point group O_h (m-3m) 
     there are 10 classes
     the character table:

       E     8C3   3C2   6C4   6C2'  i     8S6   3s_h  6S4   6s_d 
A_1g   1.00  1.00  1.00  1.00  1.00  1.00  1.00  1.00  1.00  1.00
A_2g   1.00  1.00  1.00 -1.00 -1.00  1.00  1.00  1.00 -1.00 -1.00
E_g    2.00 -1.00  2.00  0.00  0.00  2.00 -1.00  2.00  0.00  0.00
T_1g   3.00  0.00 -1.00  1.00 -1.00  3.00  0.00 -1.00  1.00 -1.00
T_2g   3.00  0.00 -1.00 -1.00  1.00  3.00  0.00 -1.00 -1.00  1.00
A_1u   1.00  1.00  1.00  1.00  1.00 -1.00 -1.00 -1.00 -1.00 -1.00
A_2u   1.00  1.00  1.00 -1.00 -1.00 -1.00 -1.00 -1.00  1.00  1.00
E_u    2.00 -1.00  2.00  0.00  0.00 -2.00  1.00 -2.00  0.00  0.00
T_1u   3.00  0.00 -1.00  1.00 -1.00 -3.00  0.00  1.00 -1.00  1.00
T_2u   3.00  0.00 -1.00 -1.00  1.00 -3.00  0.00  1.00  1.00 -1.00

     the symmetry operations in each class and the name of the first element:

     E        1
          identity                                               
     8C3     17   19   20   18   24   21   22   23
          120 deg rotation - cart. axis [-1,-1,-1]               
     3C2      2    4    3
          180 deg rotation - cart. axis [0,0,1]                  
     6C4      7    8   15   16   12   11
           90 deg rotation - cart. axis [0,0,-1]                 
     6C2'     5    6   14   13   10    9
          180 deg rotation - cart. axis [1,1,0]                  
     i       25
          inversion                                              
     8S6     41   43   44   42   48   45   46   47
          inv. 120 deg rotation - cart. axis [-1,-1,-1]          
     3s_h    26   28   27
          inv. 180 deg rotation - cart. axis [0,0,1]             
     6S4     31   32   39   40   36   35
          inv.  90 deg rotation - cart. axis [0,0,-1]            
     6s_d    29   30   38   37   34   33
          inv. 180 deg rotation - cart. axis [1,1,0]             

   Cartesian axes

     site n.     atom                  positions (alat units)
         1        Cu     tau(   1) = (   0.0000000   0.0000000   0.0000000  )

   Crystallographic axes

     site n.     atom                  positions (cryst. coord.)
         1        Cu     tau(   1) = (  0.0000000  0.0000000  0.0000000  )

     number of k points=    29  Marzari-Vanderbilt smearing, width (Ry)=  0.0100
                       cart. coord. in units 2pi/alat
        k(    1) = (   0.0000000   0.0000000   0.0000000), wk =   0.0039062
        k(    2) = (  -0.1250000   0.1250000  -0.1250000), wk =   0.0312500
        k(    3) = (  -0.2500000   0.2500000  -0.2500000), wk =   0.0312500
        k(    4) = (  -0.3750000   0.3750000  -0.3750000), wk =   0.0312500
        k(    5) = (   0.5000000  -0.5000000   0.5000000), wk =   0.0156250
        k(    6) = (   0.0000000   0.2500000   0.0000000), wk =   0.0234375
        k(    7) = (  -0.1250000   0.3750000  -0.1250000), wk =   0.0937500
        k(    8) = (  -0.2500000   0.5000000  -0.2500000), wk =   0.0937500
        k(    9) = (   0.6250000  -0.3750000   0.6250000), wk =   0.0937500
        k(   10) = (   0.5000000  -0.2500000   0.5000000), wk =   0.0937500
        k(   11) = (   0.3750000  -0.1250000   0.3750000), wk =   0.0937500
        k(   12) = (   0.2500000   0.0000000   0.2500000), wk =   0.0468750
        k(   13) = (   0.0000000   0.5000000   0.0000000), wk =   0.0234375
        k(   14) = (  -0.1250000   0.6250000  -0.1250000), wk =   0.0937500
        k(   15) = (   0.7500000  -0.2500000   0.7500000), wk =   0.0937500
        k(   16) = (   0.6250000  -0.1250000   0.6250000), wk =   0.0937500
        k(   17) = (   0.5000000   0.0000000   0.5000000), wk =   0.0468750
        k(   18) = (   0.0000000   0.7500000   0.0000000), wk =   0.0234375
        k(   19) = (   0.8750000  -0.1250000   0.8750000), wk =   0.0937500
        k(   20) = (   0.7500000   0.0000000   0.7500000), wk =   0.0468750
        k(   21) = (   0.0000000  -1.0000000   0.0000000), wk =   0.0117188
        k(   22) = (  -0.2500000   0.5000000   0.0000000), wk =   0.0937500
        k(   23) = (   0.6250000  -0.3750000   0.8750000), wk =   0.1875000
        k(   24) = (   0.5000000  -0.2500000   0.7500000), wk =   0.0937500
        k(   25) = (   0.7500000  -0.2500000   1.0000000), wk =   0.0937500
        k(   26) = (   0.6250000  -0.1250000   0.8750000), wk =   0.1875000
        k(   27) = (   0.5000000   0.0000000   0.7500000), wk =   0.0937500
        k(   28) = (  -0.2500000  -1.0000000   0.0000000), wk =   0.0468750
        k(   29) = (  -0.5000000  -1.0000000   0.0000000), wk =   0.0234375

                       cryst. coord.
        k(    1) = (   0.0000000   0.0000000   0.0000000), wk =   0.0039062
        k(    2) = (   0.0000000   0.0000000   0.1250000), wk =   0.0312500
        k(    3) = (   0.0000000   0.0000000   0.2500000), wk =   0.0312500
        k(    4) = (   0.0000000   0.0000000   0.3750000), wk =   0.0312500
        k(    5) = (   0.0000000   0.0000000  -0.5000000), wk =   0.0156250
        k(    6) = (   0.0000000   0.1250000   0.1250000), wk =   0.0234375
        k(    7) = (   0.0000000   0.1250000   0.2500000), wk =   0.0937500
        k(    8) = (   0.0000000   0.1250000   0.3750000), wk =   0.0937500
        k(    9) = (   0.0000000   0.1250000  -0.5000000), wk =   0.0937500
        k(   10) = (   0.0000000   0.1250000  -0.3750000), wk =   0.0937500
        k(   11) = (   0.0000000   0.1250000  -0.2500000), wk =   0.0937500
        k(   12) = (   0.0000000   0.1250000  -0.1250000), wk =   0.0468750
        k(   13) = (   0.0000000   0.2500000   0.2500000), wk =   0.0234375
        k(   14) = (   0.0000000   0.2500000   0.3750000), wk =   0.0937500
        k(   15) = (   0.0000000   0.2500000  -0.5000000), wk =   0.0937500
        k(   16) = (   0.0000000   0.2500000  -0.3750000), wk =   0.0937500
        k(   17) = (   0.0000000   0.2500000  -0.2500000), wk =   0.0468750
        k(   18) = (   0.0000000   0.3750000   0.3750000), wk =   0.0234375
        k(   19) = (   0.0000000   0.3750000  -0.5000000), wk =   0.0937500
        k(   20) = (   0.0000000   0.3750000  -0.3750000), wk =   0.0468750
        k(   21) = (   0.0000000  -0.5000000  -0.5000000), wk =   0.0117188
        k(   22) = (   0.1250000   0.2500000   0.3750000), wk =   0.0937500
        k(   23) = (   0.1250000   0.2500000  -0.5000000), wk =   0.1875000
        k(   24) = (   0.1250000   0.2500000  -0.3750000), wk =   0.0937500
        k(   25) = (   0.1250000   0.3750000  -0.5000000), wk =   0.0937500
        k(   26) = (   0.1250000   0.3750000  -0.3750000), wk =   0.1875000
        k(   27) = (   0.1250000   0.3750000  -0.2500000), wk =   0.0937500
        k(   28) = (   0.1250000  -0.5000000  -0.3750000), wk =   0.0468750
        k(   29) = (   0.2500000  -0.5000000  -0.2500000), wk =   0.0234375

     Dense  grid:     6231 G-vectors     FFT dimensions: (  25,  25,  25)

     Smooth grid:     2229 G-vectors     FFT dimensions: (  20,  20,  20)

     Dynamical RAM for                 wfc:       0.02 MB

     Dynamical RAM for     wfc (w. buffer):       0.64 MB

     Dynamical RAM for           str. fact:       0.05 MB

     Dynamical RAM for           local pot:       0.00 MB

     Dynamical RAM for          nlocal pot:       0.04 MB

     Dynamical RAM for                qrad:       1.34 MB

     Dynamical RAM for          rho,v,vnew:       0.33 MB

     Dynamical RAM for               rhoin:       0.11 MB

     Dynamical RAM for            rho*nmix:       0.76 MB

     Dynamical RAM for           G-vectors:       0.19 MB

     Dynamical RAM for          h,s,v(r/c):       0.02 MB

     Dynamical RAM for          <psi|beta>:       0.00 MB

     Dynamical RAM for                 psi:       0.04 MB

     Dynamical RAM for                hpsi:       0.04 MB

     Dynamical RAM for                spsi:       0.04 MB

     Dynamical RAM for      wfcinit/wfcrot:       0.04 MB

     Dynamical RAM for           addusdens:       8.89 MB

     Estimated static dynamical RAM per process >       3.10 MB

     Estimated max dynamical RAM per process >      12.74 MB

     Estimated total dynamical RAM >      25.49 MB

     Initial potential from superposition of free atoms

     starting charge      10.9998, renormalised to      11.0000
     Starting wfcs are    9 randomized atomic wfcs +    1 random wfcs
     Checking if some PAW data can be deallocated... 

     total cpu time spent up to now is        0.2 secs

     Self-consistent Calculation

     iteration #  1     ecut=    35.00 Ry     beta= 0.70
     Davidson diagonalization with overlap

---- Real-time Memory Report at c_bands before calling an iterative solver
            49 MiB given to the printing process from OS
             0 MiB allocation reported by mallinfo(arena+hblkhd)
          5148 MiB available memory on the node where the printing process lives
------------------
     ethr =  1.00E-02,  avg # of iterations =  3.9

     Threshold (ethr) on eigenvalues was too large:
     Diagonalizing with lowered threshold

     Davidson diagonalization with overlap

---- Real-time Memory Report at c_bands before calling an iterative solver
            49 MiB given to the printing process from OS
             0 MiB allocation reported by mallinfo(arena+hblkhd)
          5154 MiB available memory on the node where the printing process lives
------------------
     ethr =  5.46E-04,  avg # of iterations =  1.4

     total cpu time spent up to now is        0.4 secs

     total energy              =    -213.05411495 Ry
     estimated scf accuracy    <       0.05994772 Ry

     iteration #  2     ecut=    35.00 Ry     beta= 0.70
     Davidson diagonalization with overlap

---- Real-time Memory Report at c_bands before calling an iterative solver
            55 MiB given to the printing process from OS
             0 MiB allocation reported by mallinfo(arena+hblkhd)
          5150 MiB available memory on the node where the printing process lives
------------------
     ethr =  5.45E-04,  avg # of iterations =  2.1

     total cpu time spent up to now is        0.4 secs

     total energy              =    -213.05611318 Ry
     estimated scf accuracy    <       0.21412160 Ry

     iteration #  3     ecut=    35.00 Ry     beta= 0.70
     Davidson diagonalization with overlap

---- Real-time Memory Report at c_bands before calling an iterative solver
            55 MiB given to the printing process from OS
             0 MiB allocation reported by mallinfo(arena+hblkhd)
          5134 MiB available memory on the node where the printing process lives
------------------
     ethr =  5.45E-04,  avg # of iterations =  2.0

     total cpu time spent up to now is        0.5 secs

     total energy              =    -213.08971396 Ry
     estimated scf accuracy    <       0.00016031 Ry

     iteration #  4     ecut=    35.00 Ry     beta= 0.70
     Davidson diagonalization with overlap

---- Real-time Memory Report at c_bands before calling an iterative solver
            56 MiB given to the printing process from OS
             0 MiB allocation reported by mallinfo(arena+hblkhd)
          5142 MiB available memory on the node where the printing process lives
------------------
     ethr =  1.46E-06,  avg # of iterations =  3.6

     total cpu time spent up to now is        0.6 secs

     total energy              =    -213.08977683 Ry
     estimated scf accuracy    <       0.00004212 Ry

     iteration #  5     ecut=    35.00 Ry     beta= 0.70
     Davidson diagonalization with overlap

---- Real-time Memory Report at c_bands before calling an iterative solver
            56 MiB given to the printing process from OS
             0 MiB allocation reported by mallinfo(arena+hblkhd)
          5150 MiB available memory on the node where the printing process lives
------------------
     ethr =  3.83E-07,  avg # of iterations =  1.3

     total cpu time spent up to now is        0.6 secs

     total energy              =    -213.08978586 Ry
     estimated scf accuracy    <       0.00000135 Ry

     iteration #  6     ecut=    35.00 Ry     beta= 0.70
     Davidson diagonalization with overlap

---- Real-time Memory Report at c_bands before calling an iterative solver
            56 MiB given to the printing process from OS
             0 MiB allocation reported by mallinfo(arena+hblkhd)
          5150 MiB available memory on the node where the printing process lives
------------------
     ethr =  1.23E-08,  avg # of iterations =  1.7

     total cpu time spent up to now is        0.7 secs

     End of self-consistent calculation

          k = 0.0000 0.0000 0.0000 (   283 PWs)   bands (ev):

     3.2654   9.6909   9.6909   9.6909  10.5235  10.5235  35.5746  37.9710
    37.9710  37.9710

     occupation numbers 
     1.0000   1.0000   1.0000   1.0000   1.0000   1.0000   0.0000   0.0000
     0.0000   0.0000

          k =-0.1250 0.1250-0.1250 (   280 PWs)   bands (ev):

     3.8283   9.5793   9.7856   9.7856  10.4947  10.4947  31.5363  36.1121
    36.7344  36.7344

     occupation numbers 
     1.0000   1.0000   1.0000   1.0000   1.0000   1.0000   0.0000   0.0000
     0.0000   0.0000

          k =-0.2500 0.2500-0.2500 (   289 PWs)   bands (ev):

     5.3895   9.4280   9.8485   9.8485  10.6069  10.6069  25.1216  35.3634
    35.4847  35.4847

     occupation numbers 
     1.0000   1.0000   1.0000   1.0000   1.0000   1.0000   0.0000   0.0000
     0.0000   0.0000

          k =-0.3750 0.3750-0.3750 (   281 PWs)   bands (ev):

     7.1273   9.7268   9.7268  10.0603  10.9335  10.9335  19.5637  34.3994
    34.8764  34.8764

     occupation numbers 
     1.0000   1.0000   1.0000   1.0000   1.0000   1.0000   0.0000   0.0000
     0.0000   0.0000

          k = 0.5000-0.5000 0.5000 (   272 PWs)   bands (ev):

     7.5981   9.6567   9.6567  11.0986  11.0986  11.6240  16.4366  33.9805
    34.7406  34.7406

     occupation numbers 
     1.0000   1.0000   1.0000   1.0000   1.0000   1.0000   0.0000   0.0000
     0.0000   0.0000

          k = 0.0000 0.2500 0.0000 (   287 PWs)   bands (ev):

     4.0140   9.4742   9.8700   9.8700  10.3324  10.6036  33.7273  33.9475
    33.9475  35.7465

     occupation numbers 
     1.0000   1.0000   1.0000   1.0000   1.0000   1.0000   0.0000   0.0000
     0.0000   0.0000

          k =-0.1250 0.3750-0.1250 (   289 PWs)   bands (ev):

     5.2440   9.2574   9.9026  10.0169  10.4006  10.7259  27.5749  32.1449
    33.5235  35.9607

     occupation numbers 
     1.0000   1.0000   1.0000   1.0000   1.0000   1.0000   0.0000   0.0000
     0.0000   0.0000

          k =-0.2500 0.5000-0.2500 (   275 PWs)   bands (ev):

     7.0288   9.2838   9.6630   9.9575  10.9934  11.1396  21.6551  31.4326
    32.1508  33.7918

     occupation numbers 
     1.0000   1.0000   1.0000   1.0000   1.0000   1.0000   0.0000   0.0000
     0.0000   0.0000

          k = 0.6250-0.3750 0.6250 (   275 PWs)   bands (ev):

     7.8575   9.4525   9.8457  10.0170  11.1099  12.8020  17.1150  30.1658
    31.9372  33.5147

     occupation numbers 
     1.0000   1.0000   1.0000   1.0000   1.0000   0.0111   0.0000   0.0000
     0.0000   0.0000

          k = 0.5000-0.2500 0.5000 (   276 PWs)   bands (ev):

     7.7474   9.5258   9.8452   9.8669  10.8901  12.2574  18.3700  29.0057
    33.7450  34.3550

     occupation numbers 
     1.0000   1.0000   1.0000   1.0000   1.0000   1.0043   0.0000   0.0000
     0.0000   0.0000

          k = 0.3750-0.1250 0.3750 (   283 PWs)   bands (ev):

     6.4594   9.2883   9.7347   9.9749  10.4649  11.1815  23.5455  28.9191
    36.2689  36.7395

     occupation numbers 
     1.0000   1.0000   1.0000   1.0000   1.0000   1.0000   0.0000   0.0000
     0.0000   0.0000

          k = 0.2500 0.0000 0.2500 (   285 PWs)   bands (ev):

     4.7309   9.3994   9.8651   9.9446  10.3145  10.6947  29.4437  30.1504
    38.2867  39.3062

     occupation numbers 
     1.0000   1.0000   1.0000   1.0000   1.0000   1.0000   0.0000   0.0000
     0.0000   0.0000

          k = 0.0000 0.5000 0.0000 (   290 PWs)   bands (ev):

     6.0334   8.9653  10.0519  10.3584  10.3584  10.7990  29.7657  29.7657
    31.0732  31.7304

     occupation numbers 
     1.0000   1.0000   1.0000   1.0000   1.0000   1.0000   0.0000   0.0000
     0.0000   0.0000

          k =-0.1250 0.6250-0.1250 (   280 PWs)   bands (ev):

     7.3561   8.7703   9.8689  10.4528  11.0200  11.2811  24.6085  27.8364
    28.5753  32.2408

     occupation numbers 
     1.0000   1.0000   1.0000   1.0000   1.0000   1.0000   0.0000   0.0000
     0.0000   0.0000

          k = 0.7500-0.2500 0.7500 (   279 PWs)   bands (ev):

     8.2498   8.8326   9.7004  10.3354  11.1399  13.6195  19.3758  25.2433
    28.7669  32.3287

     occupation numbers 
     1.0000   1.0000   1.0000   1.0000   1.0000   0.0000   0.0000   0.0000
     0.0000   0.0000

          k = 0.6250-0.1250 0.6250 (   274 PWs)   bands (ev):

     8.4996   9.0172   9.5283  10.2373  10.9112  14.8059  17.9232  23.6497
    30.3735  32.9910

     occupation numbers 
     1.0000   1.0000   1.0000   1.0000   1.0000   0.0000   0.0000   0.0000
     0.0000   0.0000

          k = 0.5000 0.0000 0.5000 (   273 PWs)   bands (ev):

     7.9510   9.1752   9.3856  10.1933  10.5227  12.3992  22.3855  23.5764
    33.1623  34.4521

     occupation numbers 
     1.0000   1.0000   1.0000   1.0000   1.0000   1.0686   0.0000   0.0000
     0.0000   0.0000

          k = 0.0000 0.7500 0.0000 (   278 PWs)   bands (ev):

     7.6723   8.4763  10.9537  10.9537  10.9975  11.4333  24.0928  26.8405
    26.8405  30.6419

     occupation numbers 
     1.0000   1.0000   1.0000   1.0000   1.0000   1.0000   0.0000   0.0000
     0.0000   0.0000

          k = 0.8750-0.1250 0.8750 (   276 PWs)   bands (ev):

     7.9786   8.4287  10.5935  10.8762  11.1822  13.9727  21.4146  22.9089
    26.5611  31.4595

     occupation numbers 
     1.0000   1.0000   1.0000   1.0000   1.0000   0.0000   0.0000   0.0000
     0.0000   0.0000

          k = 0.7500 0.0000 0.7500 (   276 PWs)   bands (ev):

     8.3958   8.6293   9.9409  10.6572  11.0444  16.9939  18.3996  20.5037
    27.8293  32.0077

     occupation numbers 
     1.0000   1.0000   1.0000   1.0000   1.0000   0.0000   0.0000   0.0000
     0.0000   0.0000

          k = 0.0000-1.0000 0.0000 (   286 PWs)   bands (ev):

     7.8073   8.2793  11.0801  11.2433  11.2433  14.1292  19.7837  25.7523
    25.7523  30.2766

     occupation numbers 
     1.0000   1.0000   1.0000   1.0000   1.0000   0.0000   0.0000   0.0000
     0.0000   0.0000

          k =-0.2500 0.5000 0.0000 (   285 PWs)   bands (ev):

     6.6269   9.0435   9.6811  10.3679  10.4060  11.2118  25.9926  26.6606
    31.9684  36.5902

     occupation numbers 
     1.0000   1.0000   1.0000   1.0000   1.0000   1.0000   0.0000   0.0000
     0.0000   0.0000

          k = 0.6250-0.3750 0.8750 (   277 PWs)   bands (ev):

     8.0408   9.0886   9.4101  10.2428  10.8638  12.5501  20.6673  26.1411
    29.0631  36.6317

     occupation numbers 
     1.0000   1.0000   1.0000   1.0000   1.0000   0.8292   0.0000   0.0000
     0.0000   0.0000

          k = 0.5000-0.2500 0.7500 (   278 PWs)   bands (ev):

     8.3742   9.0823   9.6094  10.1402  11.0424  14.7761  16.9276  26.8769
    27.2369  36.3451

     occupation numbers 
     1.0000   1.0000   1.0000   1.0000   1.0000   0.0000   0.0000   0.0000
     0.0000   0.0000

          k = 0.7500-0.2500 1.0000 (   275 PWs)   bands (ev):

     8.0780   8.6557   9.8367  10.7974  10.9503  12.9106  23.5940  24.3252
    24.7460  34.9019

     occupation numbers 
     1.0000   1.0000   1.0000   1.0000   1.0000   0.0002   0.0000   0.0000
     0.0000   0.0000

          k = 0.6250-0.1250 0.8750 (   273 PWs)   bands (ev):

     8.5109   8.7791   9.5773  10.5479  11.1232  16.0047  19.0440  22.4408
    24.6778  36.0132

     occupation numbers 
     1.0000   1.0000   1.0000   1.0000   1.0000   0.0000   0.0000   0.0000
     0.0000   0.0000

          k = 0.5000 0.0000 0.7500 (   276 PWs)   bands (ev):

     8.7457   8.9525   9.1916  10.4340  10.9541  15.1175  19.8485  21.8011
    26.4008  37.1608

     occupation numbers 
     1.0000   1.0000   1.0000   1.0000   1.0000   0.0000   0.0000   0.0000
     0.0000   0.0000

          k =-0.2500-1.0000 0.0000 (   276 PWs)   bands (ev):

     8.1318   8.4954  10.2985  10.8300  11.2439  15.7501  20.0790  22.6824
    23.5833  34.3394

     occupation numbers 
     1.0000   1.0000   1.0000   1.0000   1.0000   0.0000   0.0000   0.0000
     0.0000   0.0000

          k =-0.5000-1.0000 0.0000 (   280 PWs)   bands (ev):

     8.5550   9.1686   9.1686  10.4790  11.2431  18.8669  18.8669  20.9883
    21.4498  41.1102

     occupation numbers 
     1.0000   1.0000   1.0000   1.0000   1.0000   0.0000   0.0000   0.0000
     0.0000   0.0000

     the Fermi energy is    12.6307 ev

!    total energy              =    -213.08978619 Ry
     total all-electron energy =     -3309.969552 Ry
     estimated scf accuracy    <          3.0E-09 Ry
     smearing contrib. (-TS)   =      -0.00001945 Ry
     internal energy E=F+TS    =    -213.08976675 Ry

     The total energy is F=E-TS. E is the sum of the following terms:
     one-electron contribution =     -28.04275468 Ry
     hartree contribution      =      30.64567184 Ry
     xc contribution           =     -44.63502079 Ry
     ewald contribution        =     -81.20902241 Ry
     one-center paw contrib.   =     -89.84864071 Ry
      -> PAW hartree energy AE =      97.77664825 Ry
      -> PAW hartree energy PS =     -97.07432450 Ry
      -> PAW xc energy AE      =    -134.89539264 Ry
      -> PAW xc energy PS      =      44.34442818 Ry
      -> total E_H with PAW    =      31.34799560 Ry
      -> total E_XC with PAW   =    -135.18598525 Ry

     convergence has been achieved in   6 iterations

     Writing all to output data dir ./tmp/cu_fcc.save/ :
     XML data file, charge density, pseudopotentials, collected wavefunctions

     init_run     :      0.19s CPU      0.21s WALL (       1 calls)
     electrons    :      0.43s CPU      0.47s WALL (       1 calls)

     Called by init_run:
     wfcinit      :      0.02s CPU      0.02s WALL (       1 calls)
     wfcinit:atom :      0.00s CPU      0.00s WALL (      29 calls)
     wfcinit:wfcr :      0.02s CPU      0.02s WALL (      29 calls)
     potinit      :      0.10s CPU      0.11s WALL (       1 calls)
     hinit0       :      0.07s CPU      0.07s WALL (       1 calls)

     Called by electrons:
     c_bands      :      0.14s CPU      0.16s WALL (       7 calls)
     sum_band     :      0.05s CPU      0.06s WALL (       7 calls)
     v_of_rho     :      0.01s CPU      0.01s WALL (       7 calls)
     v_h          :      0.00s CPU      0.00s WALL (       7 calls)
     v_xc         :      0.01s CPU      0.01s WALL (       7 calls)
     newd         :      0.02s CPU      0.03s WALL (       7 calls)
     PAW_pot      :      0.25s CPU      0.27s WALL (       7 calls)
     mix_rho      :      0.00s CPU      0.00s WALL (       7 calls)

     Called by c_bands:
     init_us_2    :      0.00s CPU      0.01s WALL (     435 calls)
     cegterg      :      0.13s CPU      0.15s WALL (     203 calls)

     Called by sum_band:
     sum_band:wei :      0.00s CPU      0.00s WALL (       7 calls)
     sum_band:loo :      0.02s CPU      0.03s WALL (       7 calls)
     sum_band:buf :      0.00s CPU      0.00s WALL (     203 calls)
     sum_band:ini :      0.00s CPU      0.00s WALL (     203 calls)
     sum_band:cal :      0.00s CPU      0.00s WALL (     203 calls)
     sum_band:bec :      0.00s CPU      0.00s WALL (     203 calls)
     addusdens    :      0.03s CPU      0.03s WALL (       7 calls)
                                        0.00s GPU  (       7 calls)
     addusd:skk   :      0.00s CPU      0.00s WALL (       7 calls)
                                        0.00s GPU  (       7 calls)

     Called by *egterg:
     cdiaghg      :      0.02s CPU      0.02s WALL (     641 calls)
     cegterg:over :      0.00s CPU      0.00s WALL (     467 calls)
     cegterg:upda :      0.00s CPU      0.00s WALL (     467 calls)
     cegterg:last :      0.00s CPU      0.00s WALL (     367 calls)
     h_psi        :      0.11s CPU      0.12s WALL (     699 calls)
     s_psi        :      0.00s CPU      0.00s WALL (     699 calls)
     g_psi        :      0.00s CPU      0.00s WALL (     467 calls)

     Called by h_psi:
     h_psi:calbec :      0.00s CPU      0.00s WALL (     699 calls)
     vloc_psi     :      0.10s CPU      0.12s WALL (     699 calls)
                                        0.00s GPU  (     699 calls)
     add_vuspsi   :      0.00s CPU      0.00s WALL (     699 calls)

     General routines
     calbec       :      0.00s CPU      0.00s WALL (     902 calls)
     fft          :      0.02s CPU      0.02s WALL (      90 calls)
     ffts         :      0.06s CPU      0.06s WALL (      14 calls)
     fftw         :      0.10s CPU      0.12s WALL (   12528 calls)
     interpolate  :      0.06s CPU      0.06s WALL (       7 calls)

     Parallel routines

     PAW routines
     PAW_pot      :      0.25s CPU      0.27s WALL (       7 calls)
     PAW_symme    :      0.00s CPU      0.00s WALL (      14 calls)

     PWSCF        :      0.65s CPU      0.72s WALL


   This run was terminated on:   2:51:58   6Mar2026            

=------------------------------------------------------------------------------=
   JOB DONE.
=------------------------------------------------------------------------------=
