LAMMPS (7 Feb 2024 - Update 1)
OMP_NUM_THREADS environment is not set. Defaulting to 1 thread. (src/comm.cpp:98)
  using 1 OpenMP thread(s) per MPI task
# Quick LAMMPS simulation for density estimate
units real
atom_style full
dimension 3
boundary p p p
newton on

read_data data.nacl
Reading data file ...
  orthogonal box = (-15.8 -15.8 -15.8) to (15.8 15.8 15.8)
  1 by 1 by 1 MPI processor grid
  reading atoms ...
  3036 atoms
  scanning bonds ...
  2 = max bonds/atom
  scanning angles ...
  1 = max angles/atom
  reading bonds ...
  2000 bonds
  reading angles ...
  1000 angles
Finding 1-2 1-3 1-4 neighbors ...
  special bond factors lj:    0        0        0       
  special bond factors coul:  0        0        0       
     2 = max # of 1-2 neighbors
     1 = max # of 1-3 neighbors
     1 = max # of 1-4 neighbors
     2 = max # of special neighbors
  special bonds CPU = 0.000 seconds
  read_data CPU = 0.007 seconds

pair_style lj/cut/coul/long 10.0
pair_coeff 1 1 0.1554 3.166
pair_coeff 2 2 0.0 0.0
pair_coeff 3 3 0.130 2.35
pair_coeff 4 4 0.100 4.40

bond_style harmonic
angle_style harmonic
bond_coeff 1 1000.0 1.0
angle_coeff 1 100.0 109.47

kspace_style pppm 1.0e-4

thermo 100
thermo_style custom step temp press density

timestep 2.0

# Energy minimization
min_style cg
minimize 1.0e-4 1.0e-6 500 5000
PPPM initialization ...
  using 12-bit tables for long-range coulomb (src/kspace.cpp:342)
  G vector (1/distance) = 0.27194581
  grid = 18 18 18
  stencil order = 5
  estimated absolute RMS force accuracy = 0.020750024
  estimated relative force accuracy = 6.2488082e-05
  using double precision FFTW3
  3d grid and FFT values/proc = 15625 5832
Generated 6 of 6 mixed pair_coeff terms from geometric mixing rule
Neighbor list info ...
  update: every = 1 steps, delay = 0 steps, check = yes
  max neighbors/atom: 2000, page size: 100000
  master list distance cutoff = 12
  ghost atom cutoff = 12
  binsize = 6, bins = 6 6 6
  1 neighbor lists, perpetual/occasional/extra = 1 0 0
  (1) pair lj/cut/coul/long, perpetual
      attributes: half, newton on
      pair build: half/bin/newton
      stencil: half/bin/3d
      bin: standard
Per MPI rank memory allocation (min/avg/max) = 13.93 | 13.93 | 13.93 Mbytes
   Step          Temp          Press         Density    
         0   0              1.0160647e+10  1.0034104    
       100   0             -4376.8481      1.0034104    
       197   0             -4161.5817      1.0034104    
Loop time of 3.31845 on 1 procs for 197 steps with 3036 atoms

99.1% CPU use with 1 MPI tasks x 1 OpenMP threads

Minimization stats:
  Stopping criterion = energy tolerance
  Energy initial, next-to-last, final = 
      1168937452.92028  -16239.5734205613  -16240.7848132028
  Force two-norm initial, final = 3.1140158e+10 70.150828
  Force max component initial, final = 2.1700937e+10 14.185917
  Final line search alpha, max atom move = 0.0085963303 0.12194683
  Iterations, force evaluations = 197 342

MPI task timing breakdown:
Section |  min time  |  avg time  |  max time  |%varavg| %total
---------------------------------------------------------------
Pair    | 2.9711     | 2.9711     | 2.9711     |   0.0 | 89.53
Bond    | 0.010102   | 0.010102   | 0.010102   |   0.0 |  0.30
Kspace  | 0.2121     | 0.2121     | 0.2121     |   0.0 |  6.39
Neigh   | 0.098294   | 0.098294   | 0.098294   |   0.0 |  2.96
Comm    | 0.013496   | 0.013496   | 0.013496   |   0.0 |  0.41
Output  | 2.3876e-05 | 2.3876e-05 | 2.3876e-05 |   0.0 |  0.00
Modify  | 0          | 0          | 0          |   0.0 |  0.00
Other   |            | 0.01336    |            |       |  0.40

Nlocal:           3036 ave        3036 max        3036 min
Histogram: 1 0 0 0 0 0 0 0 0 0
Nghost:          13337 ave       13337 max       13337 min
Histogram: 1 0 0 0 0 0 0 0 0 0
Neighs:    1.05831e+06 ave 1.05831e+06 max 1.05831e+06 min
Histogram: 1 0 0 0 0 0 0 0 0 0

Total # of neighbors = 1058310
Ave neighs/atom = 348.58696
Ave special neighs/atom = 1.9762846
Neighbor list builds = 8
Dangerous builds = 0

# SHAKE
fix shake all shake 0.0001 20 0 b 1 a 1
Finding SHAKE clusters ...
       0 = # of size 2 clusters
       0 = # of size 3 clusters
       0 = # of size 4 clusters
    1000 = # of frozen angles
  find clusters CPU = 0.000 seconds

# Equilibration NPT (short)
velocity all create 298.0 12345
fix 1 all npt temp 298.0 298.0 100.0 iso 1.0 1.0 1000.0
run 1000
PPPM initialization ...
  using 12-bit tables for long-range coulomb (src/kspace.cpp:342)
  G vector (1/distance) = 0.27194581
  grid = 18 18 18
  stencil order = 5
  estimated absolute RMS force accuracy = 0.020750024
  estimated relative force accuracy = 6.2488082e-05
  using double precision FFTW3
  3d grid and FFT values/proc = 15625 5832
Generated 6 of 6 mixed pair_coeff terms from geometric mixing rule
Per MPI rank memory allocation (min/avg/max) = 20.68 | 20.68 | 20.68 Mbytes
   Step          Temp          Press         Density    
       197   298           -2081.1306      1.0034104    
       200   152.95159      280.58127      1.0034244    
       300   165.60464     -341.04571      1.0070036    
       400   224.34196      141.09141      1.0200349    
       500   269.10179      444.04509      1.0218383    
       600   300.15209      180.00664      1.0138444    
       700   301.66179     -76.317873      1.0060734    
       800   297.83849     -420.50687      1.0096339    
       900   305.23468     -722.32836      1.0227721    
      1000   296.84749      441.83028      1.0328287    
      1100   293.96792     -24.974317      1.0326021    
      1197   304.89453     -217.30863      1.02888      
Loop time of 8.26234 on 1 procs for 1000 steps with 3036 atoms

Performance: 20.914 ns/day, 1.148 hours/ns, 121.031 timesteps/s, 367.450 katom-step/s
99.1% CPU use with 1 MPI tasks x 1 OpenMP threads

MPI task timing breakdown:
Section |  min time  |  avg time  |  max time  |%varavg| %total
---------------------------------------------------------------
Pair    | 6.1854     | 6.1854     | 6.1854     |   0.0 | 74.86
Bond    | 0.00032182 | 0.00032182 | 0.00032182 |   0.0 |  0.00
Kspace  | 0.6224     | 0.6224     | 0.6224     |   0.0 |  7.53
Neigh   | 1.0338     | 1.0338     | 1.0338     |   0.0 | 12.51
Comm    | 0.036243   | 0.036243   | 0.036243   |   0.0 |  0.44
Output  | 0.00022714 | 0.00022714 | 0.00022714 |   0.0 |  0.00
Modify  | 0.37289    | 0.37289    | 0.37289    |   0.0 |  4.51
Other   |            | 0.01102    |            |       |  0.13

Nlocal:           3036 ave        3036 max        3036 min
Histogram: 1 0 0 0 0 0 0 0 0 0
Nghost:          13595 ave       13595 max       13595 min
Histogram: 1 0 0 0 0 0 0 0 0 0
Neighs:    1.08375e+06 ave 1.08375e+06 max 1.08375e+06 min
Histogram: 1 0 0 0 0 0 0 0 0 0

Total # of neighbors = 1083752
Ave neighs/atom = 356.96706
Ave special neighs/atom = 1.9762846
Neighbor list builds = 82
Dangerous builds = 0
unfix 1

# Production NPT with density average
fix 2 all npt temp 298.0 298.0 100.0 iso 1.0 1.0 1000.0
variable dens equal density
fix ave all ave/time 10 100 1000 v_dens file density.out ave running
run 2000
PPPM initialization ...
  using 12-bit tables for long-range coulomb (src/kspace.cpp:342)
  G vector (1/distance) = 0.26273814
  grid = 16 16 16
  stencil order = 5
  estimated absolute RMS force accuracy = 0.03437455
  estimated relative force accuracy = 0.00010351794
  using double precision FFTW3
  3d grid and FFT values/proc = 12167 4096
Generated 6 of 6 mixed pair_coeff terms from geometric mixing rule
Per MPI rank memory allocation (min/avg/max) = 20.78 | 20.78 | 20.78 Mbytes
   Step          Temp          Press         Density    
      1197   304.89453     -179.89925      1.02888      
      1200   299.55578     -111.36652      1.0288824    
      1300   301.21194     -155.19078      1.0262361    
      1400   293.77251      511.36534      1.0257664    
      1500   305.17593     -216.90988      1.0276435    
      1600   295.64594     -170.00132      1.0233908    
      1700   309.39954     -207.25789      1.0257609    
      1800   299.40725      473.02706      1.0326832    
      1900   296.48712      289.72363      1.0331554    
      2000   296.79883     -42.002848      1.0256813    
      2100   294.66014     -834.32087      1.0082479    
      2200   307.32819     -598.75865      1.0086194    
      2300   302.41927      824.70235      1.0237       
      2400   297.81158      27.448897      1.0235002    
      2500   292.67839     -144.19966      1.0218144    
      2600   294.56191     -322.94395      1.0278353    
      2700   299.03869      608.33083      1.0361648    
      2800   297.79135     -116.84152      1.0319912    
      2900   285.67014      252.09233      1.0327033    
      3000   298.63756      217.65096      1.0321915    
      3100   290.55402      84.256519      1.024051     
      3197   302.33375     -134.35646      1.0198658    
Loop time of 16.6446 on 1 procs for 2000 steps with 3036 atoms

Performance: 20.763 ns/day, 1.156 hours/ns, 120.159 timesteps/s, 364.802 katom-step/s
98.8% CPU use with 1 MPI tasks x 1 OpenMP threads

MPI task timing breakdown:
Section |  min time  |  avg time  |  max time  |%varavg| %total
---------------------------------------------------------------
Pair    | 12.513     | 12.513     | 12.513     |   0.0 | 75.18
Bond    | 0.00058036 | 0.00058036 | 0.00058036 |   0.0 |  0.00
Kspace  | 1.0821     | 1.0821     | 1.0821     |   0.0 |  6.50
Neigh   | 2.3349     | 2.3349     | 2.3349     |   0.0 | 14.03
Comm    | 0.074666   | 0.074666   | 0.074666   |   0.0 |  0.45
Output  | 0.00043298 | 0.00043298 | 0.00043298 |   0.0 |  0.00
Modify  | 0.61625    | 0.61625    | 0.61625    |   0.0 |  3.70
Other   |            | 0.02252    |            |       |  0.14

Nlocal:           3036 ave        3036 max        3036 min
Histogram: 1 0 0 0 0 0 0 0 0 0
Nghost:          13458 ave       13458 max       13458 min
Histogram: 1 0 0 0 0 0 0 0 0 0
Neighs:    1.07317e+06 ave 1.07317e+06 max 1.07317e+06 min
Histogram: 1 0 0 0 0 0 0 0 0 0

Total # of neighbors = 1073173
Ave neighs/atom = 353.48254
Ave special neighs/atom = 1.9762846
Neighbor list builds = 185
Dangerous builds = 0
unfix 2
unfix ave

# Print final average density
variable dens_avg equal f_ave[1]
print "Average density over last 1000 steps: ${dens_avg} g/cm^3"
ERROR: Variable dens_avg: Invalid fix ID 'ave' in variable formula (src/variable.cpp:1751)
Last command: Average density over last 1000 steps: ${dens_avg
