
     Program PWSCF v.7.5 starts on  7Mar2026 at 13: 6:16 

     This program is part of the open-source Quantum ESPRESSO suite
     for quantum simulation of materials; please cite
         "P. Giannozzi et al., J. Phys.:Condens. Matter 21 395502 (2009);
         "P. Giannozzi et al., J. Phys.:Condens. Matter 29 465901 (2017);
         "P. Giannozzi et al., J. Chem. Phys. 152 154105 (2020);
          URL http://www.quantum-espresso.org", 
     in publications or presentations arising from this work. More details at
     http://www.quantum-espresso.org/quote

     Parallel version (MPI & OpenMP), running on      20 processor cores
     Number of MPI processes:                 1
     Threads/MPI process:                    20

     MPI processes distributed on     1 nodes
     8307 MiB available memory on the printing compute node when the environment starts

     Reading input from nio_nscf.in

     Current dimensions of program PWSCF are:
     Max number of different atomic species (ntypx) = 10
     Max number of k-points (npk) =  40000
     Max angular momentum in pseudopotentials (lmaxx) =  4
     file Ni.pbe-spn-kjpaw_psl.1.0.0.UPF: wavefunction(s)  3P 3D renormalized
     file O.pbe-n-kjpaw_psl.1.0.0.UPF: wavefunction(s)  2S 2P renormalized

     Atomic positions and unit cell read from directory:
     ./outdir/NiO.save/

     [opt_tetra]  Optimized tetrahedron method is used.

     Subspace diagonalization in iterative solution of the eigenvalue problem:
     a serial algorithm will be used


     G-vector sticks info
     --------------------
     sticks:   dense  smooth     PW     G-vecs:    dense   smooth      PW
     Sum        1039     511    163                22075     7727    1411

     Using Slab Decomposition



     bravais-lattice index     =            2
     lattice parameter (alat)  =       7.8920  a.u.
     unit-cell volume          =     122.8857 (a.u.)^3
     number of atoms/cell      =            2
     number of atomic types    =            2
     number of electrons       =        24.00 (up:  13.00, down:  11.00)
     number of Kohn-Sham states=           40
     kinetic-energy cutoff     =      60.0000  Ry
     charge density cutoff     =     480.0000  Ry
     Exchange-correlation= SLA  PW   PBX  PBC
                           (   1   4   3   4   0   0   0)
     Hubbard projectors: ortho-atomic
     Hubbard parameters of DFT+U (Dudarev formulation) in eV:
     U(Ni-3d) =  6.0000

     Internal variables: lda_plus_u =T, lda_plus_u_kind = 0

     Internal variables: orbital_resolved =F, hub_pot_fix =F, apply_U = F

     celldm(1)=   7.892000  celldm(2)=   0.000000  celldm(3)=   0.000000
     celldm(4)=   0.000000  celldm(5)=   0.000000  celldm(6)=   0.000000

     crystal axes: (cart. coord. in units of alat)
               a(1) = (  -0.500000   0.000000   0.500000 )  
               a(2) = (   0.000000   0.500000   0.500000 )  
               a(3) = (  -0.500000   0.500000   0.000000 )  

     reciprocal axes: (cart. coord. in units 2 pi/alat)
               b(1) = ( -1.000000 -1.000000  1.000000 )  
               b(2) = (  1.000000  1.000000  1.000000 )  
               b(3) = ( -1.000000  1.000000 -1.000000 )  


     PseudoPot. # 1 for Ni read from file:
     ./pseudo/Ni.pbe-spn-kjpaw_psl.1.0.0.UPF
     MD5 check sum: 6e86b733589c3ad8389697b807d86aa7
     Pseudo is Projector augmented-wave + core cor, Zval = 18.0
     Generated using &quot;atomic&quot; code by A. Dal Corso  v.6.3
     Shape of augmentation charge: PSQ
     Using radial grid of 1195 points,  6 beta functions with: 
                l(1) =   0
                l(2) =   0
                l(3) =   1
                l(4) =   1
                l(5) =   2
                l(6) =   2
     Q(r) pseudized with 0 coefficients 


     PseudoPot. # 2 for O  read from file:
     ./pseudo/O.pbe-n-kjpaw_psl.1.0.0.UPF
     MD5 check sum: e99d9cef9b487d1ca56f5b95ecd0fd7a
     Pseudo is Projector augmented-wave + core cor, Zval =  6.0
     Generated using &quot;atomic&quot; code by A. Dal Corso  v.6.3
     Shape of augmentation charge: PSQ
     Using radial grid of 1095 points,  4 beta functions with: 
                l(1) =   0
                l(2) =   0
                l(3) =   1
                l(4) =   1
     Q(r) pseudized with 0 coefficients 


     atomic species   valence    mass     pseudopotential
     Ni               18.00    58.69300     Ni( 1.00)
     O                 6.00    15.99900     O ( 1.00)

     Starting magnetic structure 
     atomic species   magnetization
     Ni              0.500
     O               0.000

     48 Sym. Ops., with inversion, found


                                    s                        frac. trans.

      isym =  1     identity                                     

 cryst.   s( 1) = (     1          0          0      )
                  (     0          1          0      )
                  (     0          0          1      )

 cart.    s( 1) = (  1.0000000  0.0000000  0.0000000 )
                  (  0.0000000  1.0000000  0.0000000 )
                  (  0.0000000  0.0000000  1.0000000 )


      isym =  2     180 deg rotation - cart. axis [0,0,1]        

 cryst.   s( 2) = (     0          1         -1      )
                  (     1          0         -1      )
                  (     0          0         -1      )

 cart.    s( 2) = ( -1.0000000  0.0000000  0.0000000 )
                  (  0.0000000 -1.0000000  0.0000000 )
                  (  0.0000000  0.0000000  1.0000000 )


      isym =  3     180 deg rotation - cart. axis [0,1,0]        

 cryst.   s( 3) = (    -1          0          0      )
                  (    -1          0          1      )
                  (    -1          1          0      )

 cart.    s( 3) = ( -1.0000000  0.0000000  0.0000000 )
                  (  0.0000000  1.0000000  0.0000000 )
                  (  0.0000000  0.0000000 -1.0000000 )


      isym =  4     180 deg rotation - cart. axis [1,0,0]        

 cryst.   s( 4) = (     0         -1          1      )
                  (     0         -1          0      )
                  (     1         -1          0      )

 cart.    s( 4) = (  1.0000000  0.0000000  0.0000000 )
                  (  0.0000000 -1.0000000  0.0000000 )
                  (  0.0000000  0.0000000 -1.0000000 )


      isym =  5     180 deg rotation - cart. axis [1,1,0]        

 cryst.   s( 5) = (     0         -1          0      )
                  (    -1          0          0      )
                  (     0          0         -1      )

 cart.    s( 5) = (  0.0000000  1.0000000  0.0000000 )
                  (  1.0000000  0.0000000  0.0000000 )
                  (  0.0000000  0.0000000 -1.0000000 )


      isym =  6     180 deg rotation - cart. axis [1,-1,0]       

 cryst.   s( 6) = (    -1          0          1      )
                  (     0         -1          1      )
                  (     0          0          1      )

 cart.    s( 6) = (  0.0000000 -1.0000000  0.0000000 )
                  ( -1.0000000  0.0000000  0.0000000 )
                  (  0.0000000  0.0000000 -1.0000000 )


      isym =  7      90 deg rotation - cart. axis [0,0,-1]       

 cryst.   s( 7) = (     0          1          0      )
                  (     0          1         -1      )
                  (    -1          1          0      )

 cart.    s( 7) = (  0.0000000  1.0000000  0.0000000 )
                  ( -1.0000000  0.0000000  0.0000000 )
                  (  0.0000000  0.0000000  1.0000000 )


      isym =  8      90 deg rotation - cart. axis [0,0,1]        

 cryst.   s( 8) = (     1          0         -1      )
                  (     1          0          0      )
                  (     1         -1          0      )

 cart.    s( 8) = (  0.0000000 -1.0000000  0.0000000 )
                  (  1.0000000  0.0000000  0.0000000 )
                  (  0.0000000  0.0000000  1.0000000 )


      isym =  9     180 deg rotation - cart. axis [1,0,1]        

 cryst.   s( 9) = (    -1          0          0      )
                  (     0          0         -1      )
                  (     0         -1          0      )

 cart.    s( 9) = (  0.0000000  0.0000000  1.0000000 )
                  (  0.0000000 -1.0000000  0.0000000 )
                  (  1.0000000  0.0000000  0.0000000 )


      isym = 10     180 deg rotation - cart. axis [-1,0,1]       

 cryst.   s(10) = (     1          0          0      )
                  (     1         -1          0      )
                  (     1          0         -1      )

 cart.    s(10) = (  0.0000000  0.0000000 -1.0000000 )
                  (  0.0000000 -1.0000000  0.0000000 )
                  ( -1.0000000  0.0000000  0.0000000 )


      isym = 11      90 deg rotation - cart. axis [0,1,0]        

 cryst.   s(11) = (     0          1         -1      )
                  (    -1          1          0      )
                  (     0          1          0      )

 cart.    s(11) = (  0.0000000  0.0000000  1.0000000 )
                  (  0.0000000  1.0000000  0.0000000 )
                  ( -1.0000000  0.0000000  0.0000000 )


      isym = 12      90 deg rotation - cart. axis [0,-1,0]       

 cryst.   s(12) = (     0         -1          1      )
                  (     0          0          1      )
                  (    -1          0          1      )

 cart.    s(12) = (  0.0000000  0.0000000 -1.0000000 )
                  (  0.0000000  1.0000000  0.0000000 )
                  (  1.0000000  0.0000000  0.0000000 )


      isym = 13     180 deg rotation - cart. axis [0,1,1]        

 cryst.   s(13) = (    -1          1          0      )
                  (     0          1          0      )
                  (     0          1         -1      )

 cart.    s(13) = ( -1.0000000  0.0000000  0.0000000 )
                  (  0.0000000  0.0000000  1.0000000 )
                  (  0.0000000  1.0000000  0.0000000 )


      isym = 14     180 deg rotation - cart. axis [0,1,-1]       

 cryst.   s(14) = (     0          0         -1      )
                  (     0         -1          0      )
                  (    -1          0          0      )

 cart.    s(14) = ( -1.0000000  0.0000000  0.0000000 )
                  (  0.0000000  0.0000000 -1.0000000 )
                  (  0.0000000 -1.0000000  0.0000000 )


      isym = 15      90 deg rotation - cart. axis [-1,0,0]       

 cryst.   s(15) = (     0          0          1      )
                  (    -1          0          1      )
                  (     0         -1          1      )

 cart.    s(15) = (  1.0000000  0.0000000  0.0000000 )
                  (  0.0000000  0.0000000  1.0000000 )
                  (  0.0000000 -1.0000000  0.0000000 )


      isym = 16      90 deg rotation - cart. axis [1,0,0]        

 cryst.   s(16) = (     1         -1          0      )
                  (     1          0         -1      )
                  (     1          0          0      )

 cart.    s(16) = (  1.0000000  0.0000000  0.0000000 )
                  (  0.0000000  0.0000000 -1.0000000 )
                  (  0.0000000  1.0000000  0.0000000 )


      isym = 17     120 deg rotation - cart. axis [-1,-1,-1]     

 cryst.   s(17) = (    -1          0          1      )
                  (    -1          1          0      )
                  (    -1          0          0      )

 cart.    s(17) = (  0.0000000  1.0000000  0.0000000 )
                  (  0.0000000  0.0000000  1.0000000 )
                  (  1.0000000  0.0000000  0.0000000 )


      isym = 18     120 deg rotation - cart. axis [-1,1,1]       

 cryst.   s(18) = (     0          1          0      )
                  (     0          0          1      )
                  (     1          0          0      )

 cart.    s(18) = (  0.0000000 -1.0000000  0.0000000 )
                  (  0.0000000  0.0000000  1.0000000 )
                  ( -1.0000000  0.0000000  0.0000000 )


      isym = 19     120 deg rotation - cart. axis [1,1,-1]       

 cryst.   s(19) = (     1          0         -1      )
                  (     0          0         -1      )
                  (     0          1         -1      )

 cart.    s(19) = (  0.0000000  1.0000000  0.0000000 )
                  (  0.0000000  0.0000000 -1.0000000 )
                  ( -1.0000000  0.0000000  0.0000000 )


      isym = 20     120 deg rotation - cart. axis [1,-1,1]       

 cryst.   s(20) = (     0         -1          0      )
                  (     1         -1          0      )
                  (     0         -1          1      )

 cart.    s(20) = (  0.0000000 -1.0000000  0.0000000 )
                  (  0.0000000  0.0000000 -1.0000000 )
                  (  1.0000000  0.0000000  0.0000000 )


      isym = 21     120 deg rotation - cart. axis [1,1,1]        

 cryst.   s(21) = (     0          0         -1      )
                  (     0          1         -1      )
                  (     1          0         -1      )

 cart.    s(21) = (  0.0000000  0.0000000  1.0000000 )
                  (  1.0000000  0.0000000  0.0000000 )
                  (  0.0000000  1.0000000  0.0000000 )


      isym = 22     120 deg rotation - cart. axis [-1,1,-1]      

 cryst.   s(22) = (    -1          1          0      )
                  (    -1          0          0      )
                  (    -1          0          1      )

 cart.    s(22) = (  0.0000000  0.0000000  1.0000000 )
                  ( -1.0000000  0.0000000  0.0000000 )
                  (  0.0000000 -1.0000000  0.0000000 )


      isym = 23     120 deg rotation - cart. axis [1,-1,-1]      

 cryst.   s(23) = (     0          0          1      )
                  (     1          0          0      )
                  (     0          1          0      )

 cart.    s(23) = (  0.0000000  0.0000000 -1.0000000 )
                  ( -1.0000000  0.0000000  0.0000000 )
                  (  0.0000000  1.0000000  0.0000000 )


      isym = 24     120 deg rotation - cart. axis [-1,-1,1]      

 cryst.   s(24) = (     1         -1          0      )
                  (     0         -1          1      )
                  (     0         -1          0      )

 cart.    s(24) = (  0.0000000  0.0000000 -1.0000000 )
                  (  1.0000000  0.0000000  0.0000000 )
                  (  0.0000000 -1.0000000  0.0000000 )


      isym = 25     inversion                                    

 cryst.   s(25) = (    -1          0          0      )
                  (     0         -1          0      )
                  (     0          0         -1      )

 cart.    s(25) = ( -1.0000000  0.0000000  0.0000000 )
                  (  0.0000000 -1.0000000  0.0000000 )
                  (  0.0000000  0.0000000 -1.0000000 )


      isym = 26     inv. 180 deg rotation - cart. axis [0,0,1]   

 cryst.   s(26) = (     0         -1          1      )
                  (    -1          0          1      )
                  (     0          0          1      )

 cart.    s(26) = (  1.0000000  0.0000000  0.0000000 )
                  (  0.0000000  1.0000000  0.0000000 )
                  (  0.0000000  0.0000000 -1.0000000 )


      isym = 27     inv. 180 deg rotation - cart. axis [0,1,0]   

 cryst.   s(27) = (     1          0          0      )
                  (     1          0         -1      )
                  (     1         -1          0      )

 cart.    s(27) = (  1.0000000  0.0000000  0.0000000 )
                  (  0.0000000 -1.0000000  0.0000000 )
                  (  0.0000000  0.0000000  1.0000000 )


      isym = 28     inv. 180 deg rotation - cart. axis [1,0,0]   

 cryst.   s(28) = (     0          1         -1      )
                  (     0          1          0      )
                  (    -1          1          0      )

 cart.    s(28) = ( -1.0000000  0.0000000  0.0000000 )
                  (  0.0000000  1.0000000  0.0000000 )
                  (  0.0000000  0.0000000  1.0000000 )


      isym = 29     inv. 180 deg rotation - cart. axis [1,1,0]   

 cryst.   s(29) = (     0          1          0      )
                  (     1          0          0      )
                  (     0          0          1      )

 cart.    s(29) = (  0.0000000 -1.0000000  0.0000000 )
                  ( -1.0000000  0.0000000  0.0000000 )
                  (  0.0000000  0.0000000  1.0000000 )


      isym = 30     inv. 180 deg rotation - cart. axis [1,-1,0]  

 cryst.   s(30) = (     1          0         -1      )
                  (     0          1         -1      )
                  (     0          0         -1      )

 cart.    s(30) = (  0.0000000  1.0000000  0.0000000 )
                  (  1.0000000  0.0000000  0.0000000 )
                  (  0.0000000  0.0000000  1.0000000 )


      isym = 31     inv.  90 deg rotation - cart. axis [0,0,-1]  

 cryst.   s(31) = (     0         -1          0      )
                  (     0         -1          1      )
                  (     1         -1          0      )

 cart.    s(31) = (  0.0000000 -1.0000000  0.0000000 )
                  (  1.0000000  0.0000000  0.0000000 )
                  (  0.0000000  0.0000000 -1.0000000 )


      isym = 32     inv.  90 deg rotation - cart. axis [0,0,1]   

 cryst.   s(32) = (    -1          0          1      )
                  (    -1          0          0      )
                  (    -1          1          0      )

 cart.    s(32) = (  0.0000000  1.0000000  0.0000000 )
                  ( -1.0000000  0.0000000  0.0000000 )
                  (  0.0000000  0.0000000 -1.0000000 )


      isym = 33     inv. 180 deg rotation - cart. axis [1,0,1]   

 cryst.   s(33) = (     1          0          0      )
                  (     0          0          1      )
                  (     0          1          0      )

 cart.    s(33) = (  0.0000000  0.0000000 -1.0000000 )
                  (  0.0000000  1.0000000  0.0000000 )
                  ( -1.0000000  0.0000000  0.0000000 )


      isym = 34     inv. 180 deg rotation - cart. axis [-1,0,1]  

 cryst.   s(34) = (    -1          0          0      )
                  (    -1          1          0      )
                  (    -1          0          1      )

 cart.    s(34) = (  0.0000000  0.0000000  1.0000000 )
                  (  0.0000000  1.0000000  0.0000000 )
                  (  1.0000000  0.0000000  0.0000000 )


      isym = 35     inv.  90 deg rotation - cart. axis [0,1,0]   

 cryst.   s(35) = (     0         -1          1      )
                  (     1         -1          0      )
                  (     0         -1          0      )

 cart.    s(35) = (  0.0000000  0.0000000 -1.0000000 )
                  (  0.0000000 -1.0000000  0.0000000 )
                  (  1.0000000  0.0000000  0.0000000 )


      isym = 36     inv.  90 deg rotation - cart. axis [0,-1,0]  

 cryst.   s(36) = (     0          1         -1      )
                  (     0          0         -1      )
                  (     1          0         -1      )

 cart.    s(36) = (  0.0000000  0.0000000  1.0000000 )
                  (  0.0000000 -1.0000000  0.0000000 )
                  ( -1.0000000  0.0000000  0.0000000 )


      isym = 37     inv. 180 deg rotation - cart. axis [0,1,1]   

 cryst.   s(37) = (     1         -1          0      )
                  (     0         -1          0      )
                  (     0         -1          1      )

 cart.    s(37) = (  1.0000000  0.0000000  0.0000000 )
                  (  0.0000000  0.0000000 -1.0000000 )
                  (  0.0000000 -1.0000000  0.0000000 )


      isym = 38     inv. 180 deg rotation - cart. axis [0,1,-1]  

 cryst.   s(38) = (     0          0          1      )
                  (     0          1          0      )
                  (     1          0          0      )

 cart.    s(38) = (  1.0000000  0.0000000  0.0000000 )
                  (  0.0000000  0.0000000  1.0000000 )
                  (  0.0000000  1.0000000  0.0000000 )


      isym = 39     inv.  90 deg rotation - cart. axis [-1,0,0]  

 cryst.   s(39) = (     0          0         -1      )
                  (     1          0         -1      )
                  (     0          1         -1      )

 cart.    s(39) = ( -1.0000000  0.0000000  0.0000000 )
                  (  0.0000000  0.0000000 -1.0000000 )
                  (  0.0000000  1.0000000  0.0000000 )


      isym = 40     inv.  90 deg rotation - cart. axis [1,0,0]   

 cryst.   s(40) = (    -1          1          0      )
                  (    -1          0          1      )
                  (    -1          0          0      )

 cart.    s(40) = ( -1.0000000  0.0000000  0.0000000 )
                  (  0.0000000  0.0000000  1.0000000 )
                  (  0.0000000 -1.0000000  0.0000000 )


      isym = 41     inv. 120 deg rotation - cart. axis [-1,-1,-1]

 cryst.   s(41) = (     1          0         -1      )
                  (     1         -1          0      )
                  (     1          0          0      )

 cart.    s(41) = (  0.0000000 -1.0000000  0.0000000 )
                  (  0.0000000  0.0000000 -1.0000000 )
                  ( -1.0000000  0.0000000  0.0000000 )


      isym = 42     inv. 120 deg rotation - cart. axis [-1,1,1]  

 cryst.   s(42) = (     0         -1          0      )
                  (     0          0         -1      )
                  (    -1          0          0      )

 cart.    s(42) = (  0.0000000  1.0000000  0.0000000 )
                  (  0.0000000  0.0000000 -1.0000000 )
                  (  1.0000000  0.0000000  0.0000000 )


      isym = 43     inv. 120 deg rotation - cart. axis [1,1,-1]  

 cryst.   s(43) = (    -1          0          1      )
                  (     0          0          1      )
                  (     0         -1          1      )

 cart.    s(43) = (  0.0000000 -1.0000000  0.0000000 )
                  (  0.0000000  0.0000000  1.0000000 )
                  (  1.0000000  0.0000000  0.0000000 )


      isym = 44     inv. 120 deg rotation - cart. axis [1,-1,1]  

 cryst.   s(44) = (     0          1          0      )
                  (    -1          1          0      )
                  (     0          1         -1      )

 cart.    s(44) = (  0.0000000  1.0000000  0.0000000 )
                  (  0.0000000  0.0000000  1.0000000 )
                  ( -1.0000000  0.0000000  0.0000000 )


      isym = 45     inv. 120 deg rotation - cart. axis [1,1,1]   

 cryst.   s(45) = (     0          0          1      )
                  (     0         -1          1      )
                  (    -1          0          1      )

 cart.    s(45) = (  0.0000000  0.0000000 -1.0000000 )
                  ( -1.0000000  0.0000000  0.0000000 )
                  (  0.0000000 -1.0000000  0.0000000 )


      isym = 46     inv. 120 deg rotation - cart. axis [-1,1,-1] 

 cryst.   s(46) = (     1         -1          0      )
                  (     1          0          0      )
                  (     1          0         -1      )

 cart.    s(46) = (  0.0000000  0.0000000 -1.0000000 )
                  (  1.0000000  0.0000000  0.0000000 )
                  (  0.0000000  1.0000000  0.0000000 )


      isym = 47     inv. 120 deg rotation - cart. axis [1,-1,-1] 

 cryst.   s(47) = (     0          0         -1      )
                  (    -1          0          0      )
                  (     0         -1          0      )

 cart.    s(47) = (  0.0000000  0.0000000  1.0000000 )
                  (  1.0000000  0.0000000  0.0000000 )
                  (  0.0000000 -1.0000000  0.0000000 )


      isym = 48     inv. 120 deg rotation - cart. axis [-1,-1,1] 

 cryst.   s(48) = (    -1          1          0      )
                  (     0          1         -1      )
                  (     0          1          0      )

 cart.    s(48) = (  0.0000000  0.0000000  1.0000000 )
                  ( -1.0000000  0.0000000  0.0000000 )
                  (  0.0000000  1.0000000  0.0000000 )


     point group O_h (m-3m) 
     there are 10 classes
     the character table:

       E     8C3   3C2   6C4   6C2'  i     8S6   3s_h  6S4   6s_d 
A_1g   1.00  1.00  1.00  1.00  1.00  1.00  1.00  1.00  1.00  1.00
A_2g   1.00  1.00  1.00 -1.00 -1.00  1.00  1.00  1.00 -1.00 -1.00
E_g    2.00 -1.00  2.00  0.00  0.00  2.00 -1.00  2.00  0.00  0.00
T_1g   3.00  0.00 -1.00  1.00 -1.00  3.00  0.00 -1.00  1.00 -1.00
T_2g   3.00  0.00 -1.00 -1.00  1.00  3.00  0.00 -1.00 -1.00  1.00
A_1u   1.00  1.00  1.00  1.00  1.00 -1.00 -1.00 -1.00 -1.00 -1.00
A_2u   1.00  1.00  1.00 -1.00 -1.00 -1.00 -1.00 -1.00  1.00  1.00
E_u    2.00 -1.00  2.00  0.00  0.00 -2.00  1.00 -2.00  0.00  0.00
T_1u   3.00  0.00 -1.00  1.00 -1.00 -3.00  0.00  1.00 -1.00  1.00
T_2u   3.00  0.00 -1.00 -1.00  1.00 -3.00  0.00  1.00  1.00 -1.00

     the symmetry operations in each class and the name of the first element:

     E        1
          identity                                               
     8C3     17   19   20   18   24   21   22   23
          120 deg rotation - cart. axis [-1,-1,-1]               
     3C2      2    4    3
          180 deg rotation - cart. axis [0,0,1]                  
     6C4      7    8   15   16   12   11
           90 deg rotation - cart. axis [0,0,-1]                 
     6C2'     5    6   14   13   10    9
          180 deg rotation - cart. axis [1,1,0]                  
     i       25
          inversion                                              
     8S6     41   43   44   42   48   45   46   47
          inv. 120 deg rotation - cart. axis [-1,-1,-1]          
     3s_h    26   28   27
          inv. 180 deg rotation - cart. axis [0,0,1]             
     6S4     31   32   39   40   36   35
          inv.  90 deg rotation - cart. axis [0,0,-1]            
     6s_d    29   30   38   37   34   33
          inv. 180 deg rotation - cart. axis [1,1,0]             

   Cartesian axes

     site n.     atom                  positions (alat units)
         1        Ni     tau(   1) = (   0.0000000   0.0000000   0.0000000  )
         2        O      tau(   2) = (  -0.5000000   0.5000000   0.5000000  )

   Crystallographic axes

     site n.     atom                  positions (cryst. coord.)
         1        Ni     tau(   1) = (  0.0000000  0.0000000  0.0000000  )
         2        O      tau(   2) = (  0.5000000  0.5000000  0.5000000  )

     number of k points=    72 (tetrahedron method)
                       cart. coord. in units 2pi/alat
        k(    1) = (   0.0000000   0.0000000   0.0000000), wk =   0.0005787
        k(    2) = (  -0.0833333   0.0833333  -0.0833333), wk =   0.0046296
        k(    3) = (  -0.1666667   0.1666667  -0.1666667), wk =   0.0046296
        k(    4) = (  -0.2500000   0.2500000  -0.2500000), wk =   0.0046296
        k(    5) = (  -0.3333333   0.3333333  -0.3333333), wk =   0.0046296
        k(    6) = (  -0.4166667   0.4166667  -0.4166667), wk =   0.0046296
        k(    7) = (   0.5000000  -0.5000000   0.5000000), wk =   0.0023148
        k(    8) = (   0.0000000   0.1666667   0.0000000), wk =   0.0034722
        k(    9) = (  -0.0833333   0.2500000  -0.0833333), wk =   0.0138889
        k(   10) = (  -0.1666667   0.3333333  -0.1666667), wk =   0.0138889
        k(   11) = (  -0.2500000   0.4166667  -0.2500000), wk =   0.0138889
        k(   12) = (  -0.3333333   0.5000000  -0.3333333), wk =   0.0138889
        k(   13) = (   0.5833333  -0.4166667   0.5833333), wk =   0.0138889
        k(   14) = (   0.5000000  -0.3333333   0.5000000), wk =   0.0138889
        k(   15) = (   0.4166667  -0.2500000   0.4166667), wk =   0.0138889
        k(   16) = (   0.3333333  -0.1666667   0.3333333), wk =   0.0138889
        k(   17) = (   0.2500000  -0.0833333   0.2500000), wk =   0.0138889
        k(   18) = (   0.1666667  -0.0000000   0.1666667), wk =   0.0069444
        k(   19) = (   0.0000000   0.3333333   0.0000000), wk =   0.0034722
        k(   20) = (  -0.0833333   0.4166667  -0.0833333), wk =   0.0138889
        k(   21) = (  -0.1666667   0.5000000  -0.1666667), wk =   0.0138889
        k(   22) = (  -0.2500000   0.5833333  -0.2500000), wk =   0.0138889
        k(   23) = (   0.6666667  -0.3333333   0.6666667), wk =   0.0138889
        k(   24) = (   0.5833333  -0.2500000   0.5833333), wk =   0.0138889
        k(   25) = (   0.5000000  -0.1666667   0.5000000), wk =   0.0138889
        k(   26) = (   0.4166667  -0.0833333   0.4166667), wk =   0.0138889
        k(   27) = (   0.3333333   0.0000000   0.3333333), wk =   0.0069444
        k(   28) = (   0.0000000   0.5000000   0.0000000), wk =   0.0034722
        k(   29) = (  -0.0833333   0.5833333  -0.0833333), wk =   0.0138889
        k(   30) = (  -0.1666667   0.6666667  -0.1666667), wk =   0.0138889
        k(   31) = (   0.7500000  -0.2500000   0.7500000), wk =   0.0138889
        k(   32) = (   0.6666667  -0.1666667   0.6666667), wk =   0.0138889
        k(   33) = (   0.5833333  -0.0833333   0.5833333), wk =   0.0138889
        k(   34) = (   0.5000000   0.0000000   0.5000000), wk =   0.0069444
        k(   35) = (   0.0000000   0.6666667   0.0000000), wk =   0.0034722
        k(   36) = (  -0.0833333   0.7500000  -0.0833333), wk =   0.0138889
        k(   37) = (   0.8333333  -0.1666667   0.8333333), wk =   0.0138889
        k(   38) = (   0.7500000  -0.0833333   0.7500000), wk =   0.0138889
        k(   39) = (   0.6666667   0.0000000   0.6666667), wk =   0.0069444
        k(   40) = (   0.0000000   0.8333333   0.0000000), wk =   0.0034722
        k(   41) = (   0.9166667  -0.0833333   0.9166667), wk =   0.0138889
        k(   42) = (   0.8333333   0.0000000   0.8333333), wk =   0.0069444
        k(   43) = (   0.0000000  -1.0000000   0.0000000), wk =   0.0017361
        k(   44) = (  -0.1666667   0.3333333   0.0000000), wk =   0.0138889
        k(   45) = (  -0.2500000   0.4166667  -0.0833333), wk =   0.0277778
        k(   46) = (  -0.3333333   0.5000000  -0.1666667), wk =   0.0277778
        k(   47) = (   0.5833333  -0.4166667   0.7500000), wk =   0.0277778
        k(   48) = (   0.5000000  -0.3333333   0.6666667), wk =   0.0138889
        k(   49) = (  -0.1666667   0.5000000   0.0000000), wk =   0.0138889
        k(   50) = (  -0.2500000   0.5833333  -0.0833333), wk =   0.0277778
        k(   51) = (   0.6666667  -0.3333333   0.8333333), wk =   0.0277778
        k(   52) = (   0.5833333  -0.2500000   0.7500000), wk =   0.0277778
        k(   53) = (   0.5000000  -0.1666667   0.6666667), wk =   0.0277778
        k(   54) = (   0.4166667  -0.0833333   0.5833333), wk =   0.0277778
        k(   55) = (   0.3333333   0.0000000   0.5000000), wk =   0.0138889
        k(   56) = (  -0.1666667   0.6666667  -0.0000000), wk =   0.0138889
        k(   57) = (   0.7500000  -0.2500000   0.9166667), wk =   0.0277778
        k(   58) = (   0.6666667  -0.1666667   0.8333333), wk =   0.0277778
        k(   59) = (   0.5833333  -0.0833333   0.7500000), wk =   0.0277778
        k(   60) = (   0.5000000   0.0000000   0.6666667), wk =   0.0138889
        k(   61) = (   0.8333333  -0.1666667   1.0000000), wk =   0.0138889
        k(   62) = (   0.7500000  -0.0833333   0.9166667), wk =   0.0277778
        k(   63) = (   0.6666667   0.0000000   0.8333333), wk =   0.0138889
        k(   64) = (  -0.1666667  -1.0000000   0.0000000), wk =   0.0069444
        k(   65) = (   0.6666667  -0.3333333   1.0000000), wk =   0.0138889
        k(   66) = (   0.5833333  -0.2500000   0.9166667), wk =   0.0277778
        k(   67) = (   0.5000000  -0.1666667   0.8333333), wk =   0.0138889
        k(   68) = (   0.6666667  -0.1666667   1.0000000), wk =   0.0138889
        k(   69) = (   0.5833333  -0.0833333   0.9166667), wk =   0.0277778
        k(   70) = (   0.5000000   0.0000000   0.8333333), wk =   0.0138889
        k(   71) = (  -0.3333333  -1.0000000   0.0000000), wk =   0.0069444
        k(   72) = (  -0.5000000  -1.0000000   0.0000000), wk =   0.0034722

                       cryst. coord.
        k(    1) = (   0.0000000   0.0000000   0.0000000), wk =   0.0005787
        k(    2) = (   0.0000000   0.0000000   0.0833333), wk =   0.0046296
        k(    3) = (   0.0000000   0.0000000   0.1666667), wk =   0.0046296
        k(    4) = (   0.0000000   0.0000000   0.2500000), wk =   0.0046296
        k(    5) = (   0.0000000   0.0000000   0.3333333), wk =   0.0046296
        k(    6) = (   0.0000000   0.0000000   0.4166667), wk =   0.0046296
        k(    7) = (   0.0000000   0.0000000  -0.5000000), wk =   0.0023148
        k(    8) = (   0.0000000   0.0833333   0.0833333), wk =   0.0034722
        k(    9) = (   0.0000000   0.0833333   0.1666667), wk =   0.0138889
        k(   10) = (   0.0000000   0.0833333   0.2500000), wk =   0.0138889
        k(   11) = (   0.0000000   0.0833333   0.3333333), wk =   0.0138889
        k(   12) = (   0.0000000   0.0833333   0.4166667), wk =   0.0138889
        k(   13) = (   0.0000000   0.0833333  -0.5000000), wk =   0.0138889
        k(   14) = (   0.0000000   0.0833333  -0.4166667), wk =   0.0138889
        k(   15) = (   0.0000000   0.0833333  -0.3333333), wk =   0.0138889
        k(   16) = (   0.0000000   0.0833333  -0.2500000), wk =   0.0138889
        k(   17) = (   0.0000000   0.0833333  -0.1666667), wk =   0.0138889
        k(   18) = (   0.0000000   0.0833333  -0.0833333), wk =   0.0069444
        k(   19) = (   0.0000000   0.1666667   0.1666667), wk =   0.0034722
        k(   20) = (   0.0000000   0.1666667   0.2500000), wk =   0.0138889
        k(   21) = (   0.0000000   0.1666667   0.3333333), wk =   0.0138889
        k(   22) = (   0.0000000   0.1666667   0.4166667), wk =   0.0138889
        k(   23) = (   0.0000000   0.1666667  -0.5000000), wk =   0.0138889
        k(   24) = (   0.0000000   0.1666667  -0.4166667), wk =   0.0138889
        k(   25) = (   0.0000000   0.1666667  -0.3333333), wk =   0.0138889
        k(   26) = (   0.0000000   0.1666667  -0.2500000), wk =   0.0138889
        k(   27) = (   0.0000000   0.1666667  -0.1666667), wk =   0.0069444
        k(   28) = (   0.0000000   0.2500000   0.2500000), wk =   0.0034722
        k(   29) = (   0.0000000   0.2500000   0.3333333), wk =   0.0138889
        k(   30) = (   0.0000000   0.2500000   0.4166667), wk =   0.0138889
        k(   31) = (   0.0000000   0.2500000  -0.5000000), wk =   0.0138889
        k(   32) = (   0.0000000   0.2500000  -0.4166667), wk =   0.0138889
        k(   33) = (   0.0000000   0.2500000  -0.3333333), wk =   0.0138889
        k(   34) = (   0.0000000   0.2500000  -0.2500000), wk =   0.0069444
        k(   35) = (   0.0000000   0.3333333   0.3333333), wk =   0.0034722
        k(   36) = (   0.0000000   0.3333333   0.4166667), wk =   0.0138889
        k(   37) = (   0.0000000   0.3333333  -0.5000000), wk =   0.0138889
        k(   38) = (   0.0000000   0.3333333  -0.4166667), wk =   0.0138889
        k(   39) = (   0.0000000   0.3333333  -0.3333333), wk =   0.0069444
        k(   40) = (   0.0000000   0.4166667   0.4166667), wk =   0.0034722
        k(   41) = (   0.0000000   0.4166667  -0.5000000), wk =   0.0138889
        k(   42) = (   0.0000000   0.4166667  -0.4166667), wk =   0.0069444
        k(   43) = (   0.0000000  -0.5000000  -0.5000000), wk =   0.0017361
        k(   44) = (   0.0833333   0.1666667   0.2500000), wk =   0.0138889
        k(   45) = (   0.0833333   0.1666667   0.3333333), wk =   0.0277778
        k(   46) = (   0.0833333   0.1666667   0.4166667), wk =   0.0277778
        k(   47) = (   0.0833333   0.1666667  -0.5000000), wk =   0.0277778
        k(   48) = (   0.0833333   0.1666667  -0.4166667), wk =   0.0138889
        k(   49) = (   0.0833333   0.2500000   0.3333333), wk =   0.0138889
        k(   50) = (   0.0833333   0.2500000   0.4166667), wk =   0.0277778
        k(   51) = (   0.0833333   0.2500000  -0.5000000), wk =   0.0277778
        k(   52) = (   0.0833333   0.2500000  -0.4166667), wk =   0.0277778
        k(   53) = (   0.0833333   0.2500000  -0.3333333), wk =   0.0277778
        k(   54) = (   0.0833333   0.2500000  -0.2500000), wk =   0.0277778
        k(   55) = (   0.0833333   0.2500000  -0.1666667), wk =   0.0138889
        k(   56) = (   0.0833333   0.3333333   0.4166667), wk =   0.0138889
        k(   57) = (   0.0833333   0.3333333  -0.5000000), wk =   0.0277778
        k(   58) = (   0.0833333   0.3333333  -0.4166667), wk =   0.0277778
        k(   59) = (   0.0833333   0.3333333  -0.3333333), wk =   0.0277778
        k(   60) = (   0.0833333   0.3333333  -0.2500000), wk =   0.0138889
        k(   61) = (   0.0833333   0.4166667  -0.5000000), wk =   0.0138889
        k(   62) = (   0.0833333   0.4166667  -0.4166667), wk =   0.0277778
        k(   63) = (   0.0833333   0.4166667  -0.3333333), wk =   0.0138889
        k(   64) = (   0.0833333  -0.5000000  -0.4166667), wk =   0.0069444
        k(   65) = (   0.1666667   0.3333333  -0.5000000), wk =   0.0138889
        k(   66) = (   0.1666667   0.3333333  -0.4166667), wk =   0.0277778
        k(   67) = (   0.1666667   0.3333333  -0.3333333), wk =   0.0138889
        k(   68) = (   0.1666667   0.4166667  -0.4166667), wk =   0.0138889
        k(   69) = (   0.1666667   0.4166667  -0.3333333), wk =   0.0277778
        k(   70) = (   0.1666667   0.4166667  -0.2500000), wk =   0.0138889
        k(   71) = (   0.1666667  -0.5000000  -0.3333333), wk =   0.0069444
        k(   72) = (   0.2500000  -0.5000000  -0.2500000), wk =   0.0034722

     Dense  grid:    22075 G-vectors     FFT dimensions: (  40,  40,  40)

     Smooth grid:     7727 G-vectors     FFT dimensions: (  27,  27,  27)

     Dynamical RAM for                 wfc:       0.59 MB

     Dynamical RAM for     wfc (w. buffer):       0.59 MB

     Dynamical RAM for             U proj.:       0.07 MB

     Dynamical RAM for  U proj. (w. buff.):       0.07 MB

     Dynamical RAM for           str. fact:       0.67 MB

     Dynamical RAM for           local pot:       0.00 MB

     Dynamical RAM for          nlocal pot:       0.38 MB

     Dynamical RAM for                qrad:       3.52 MB

     Dynamical RAM for          rho,v,vnew:       4.95 MB

     Dynamical RAM for           G-vectors:       1.32 MB

     Dynamical RAM for          h,s,v(r/c):       0.29 MB

     Dynamical RAM for          <psi|beta>:       0.02 MB

     Dynamical RAM for                 psi:       1.18 MB

     Dynamical RAM for                hpsi:       1.18 MB

     Dynamical RAM for                spsi:       1.18 MB

     Dynamical RAM for      wfcinit/wfcrot:       1.21 MB

     Dynamical RAM for           addusdens:      63.33 MB

     Estimated static dynamical RAM per process >      15.45 MB

     Estimated max dynamical RAM per process >      78.77 MB

     Check: negative core charge=   -0.000002
     Generating pointlists ...
     new r_m :   0.2063 (alat units)  1.6277 (a.u.) for type    1
     new r_m :   0.2063 (alat units)  1.6277 (a.u.) for type    2

     The potential is recalculated from file :
     ./outdir/NiO.save/charge-density


     HUBBARD ENERGY =    0.0557  (Ry)

     STARTING HUBBARD OCCUPATIONS:

     =================== HUBBARD OCCUPATIONS ===================
     ------------------------ ATOM    1 ------------------------
     Tr[ns(  1)] (up, down, total) =   4.99157  3.26591  8.25747
     Atomic magnetic moment for atom   1 =   1.72566
     SPIN  1
     eigenvalues:
       0.998  0.998  0.999  0.999  0.999
     eigenvectors (columns):
       0.507  0.862 -0.000 -0.000 -0.000
      -0.000  0.000  0.325 -0.295  0.899
      -0.000  0.000  0.576 -0.692 -0.435
       0.862 -0.507  0.000  0.000  0.000
       0.000 -0.000 -0.750 -0.659  0.055
     occupation matrix ns (before diag.):
       0.998 -0.000 -0.000 -0.000  0.000
      -0.000  0.999 -0.000  0.000  0.000
      -0.000 -0.000  0.999  0.000  0.000
      -0.000  0.000  0.000  0.998 -0.000
       0.000  0.000  0.000 -0.000  0.999
     SPIN  2
     eigenvalues:
       0.137  0.137  0.997  0.997  0.997
     eigenvectors (columns):
       0.366 -0.931 -0.000 -0.000 -0.000
      -0.000 -0.000  0.334 -0.353  0.874
      -0.000 -0.000  0.579 -0.655 -0.485
       0.931  0.366  0.000  0.000  0.000
       0.000  0.000 -0.744 -0.668  0.015
     occupation matrix ns (before diag.):
       0.137 -0.000 -0.000 -0.000  0.000
      -0.000  0.997 -0.000  0.000  0.000
      -0.000 -0.000  0.997  0.000  0.000
      -0.000  0.000  0.000  0.137 -0.000
       0.000  0.000  0.000 -0.000  0.997

     Number of occupied Hubbard levels =    8.2575

     Atomic wfc used for Hubbard projectors are orthogonalized

     Starting wfcs are   14 randomized atomic wfcs +   26 random wfcs
     Checking if some PAW data can be deallocated... 

     Band Structure Calculation
     Davidson diagonalization with overlap

     Computing kpt #:     1  of   144
     total cpu time spent up to now is       10.7 secs

     Computing kpt #:     2  of   144
     total cpu time spent up to now is       20.7 secs

     Computing kpt #:     3  of   144
     total cpu time spent up to now is       32.5 secs

     Computing kpt #:     4  of   144
     total cpu time spent up to now is       43.0 secs

     Computing kpt #:     5  of   144
     total cpu time spent up to now is       55.1 secs

     Computing kpt #:     6  of   144
     total cpu time spent up to now is       63.3 secs

     Computing kpt #:     7  of   144
     total cpu time spent up to now is       71.5 secs

     Computing kpt #:     8  of   144
     total cpu time spent up to now is       81.4 secs

     Computing kpt #:     9  of   144
     total cpu time spent up to now is       92.8 secs

     Computing kpt #:    10  of   144
     total cpu time spent up to now is      103.2 secs

     Computing kpt #:    11  of   144
     total cpu time spent up to now is      112.9 secs

     Computing kpt #:    12  of   144
     total cpu time spent up to now is      123.3 secs

     Computing kpt #:    13  of   144
     total cpu time spent up to now is      133.1 secs

     Computing kpt #:    14  of   144
     total cpu time spent up to now is      142.8 secs

     Computing kpt #:    15  of   144
     total cpu time spent up to now is      154.1 secs

     Computing kpt #:    16  of   144
     total cpu time spent up to now is      165.1 secs

     Computing kpt #:    17  of   144
     total cpu time spent up to now is      176.3 secs

     Computing kpt #:    18  of   144
     total cpu time spent up to now is      187.3 secs

     Computing kpt #:    19  of   144
     total cpu time spent up to now is      197.1 secs

     Computing kpt #:    20  of   144
     total cpu time spent up to now is      205.9 secs

     Computing kpt #:    21  of   144
     total cpu time spent up to now is      214.9 secs

     Computing kpt #:    22  of   144
     total cpu time spent up to now is      223.6 secs

     Computing kpt #:    23  of   144
     total cpu time spent up to now is      233.3 secs

     Computing kpt #:    24  of   144
     total cpu time spent up to now is      242.7 secs

     Computing kpt #:    25  of   144
     total cpu time spent up to now is      251.4 secs

     Computing kpt #:    26  of   144
     total cpu time spent up to now is      260.8 secs

     Computing kpt #:    27  of   144
     total cpu time spent up to now is      270.9 secs

     Computing kpt #:    28  of   144
     total cpu time spent up to now is      281.5 secs

     Computing kpt #:    29  of   144
     total cpu time spent up to now is      292.1 secs

     Computing kpt #:    30  of   144
     total cpu time spent up to now is      302.2 secs

     Computing kpt #:    31  of   144
     total cpu time spent up to now is      312.8 secs

     Computing kpt #:    32  of   144
     total cpu time spent up to now is      322.1 secs

     Computing kpt #:    33  of   144
     total cpu time spent up to now is      331.2 secs

     Computing kpt #:    34  of   144
     total cpu time spent up to now is      339.8 secs

     Computing kpt #:    35  of   144
     total cpu time spent up to now is      349.1 secs

     Computing kpt #:    36  of   144
     total cpu time spent up to now is      360.7 secs

     Computing kpt #:    37  of   144
     total cpu time spent up to now is      371.6 secs

     Computing kpt #:    38  of   144
     total cpu time spent up to now is      381.2 secs

     Computing kpt #:    39  of   144
     total cpu time spent up to now is      391.2 secs

     Computing kpt #:    40  of   144
     total cpu time spent up to now is      400.3 secs

     Computing kpt #:    41  of   144
     total cpu time spent up to now is      410.0 secs

     Computing kpt #:    42  of   144
     total cpu time spent up to now is      420.7 secs

     Computing kpt #:    43  of   144
     total cpu time spent up to now is      429.4 secs

     Computing kpt #:    44  of   144
     total cpu time spent up to now is      440.5 secs

     Computing kpt #:    45  of   144
     total cpu time spent up to now is      449.9 secs

     Computing kpt #:    46  of   144
     total cpu time spent up to now is      459.4 secs

     Computing kpt #:    47  of   144
     total cpu time spent up to now is      469.2 secs

     Computing kpt #:    48  of   144
     total cpu time spent up to now is      479.5 secs

     Computing kpt #:    49  of   144
     total cpu time spent up to now is      490.5 secs

     Computing kpt #:    50  of   144
     total cpu time spent up to now is      500.8 secs

     Computing kpt #:    51  of   144
     total cpu time spent up to now is      510.3 secs

     Computing kpt #:    52  of   144
     total cpu time spent up to now is      519.0 secs

     Computing kpt #:    53  of   144
     total cpu time spent up to now is      528.6 secs

     Computing kpt #:    54  of   144
     total cpu time spent up to now is      538.3 secs

     Computing kpt #:    55  of   144
     total cpu time spent up to now is      549.4 secs

     Computing kpt #:    56  of   144
     total cpu time spent up to now is      560.2 secs

     Computing kpt #:    57  of   144
     total cpu time spent up to now is      571.0 secs

     Computing kpt #:    58  of   144
     total cpu time spent up to now is      580.4 secs

     Computing kpt #:    59  of   144
     total cpu time spent up to now is      590.0 secs

     Computing kpt #:    60  of   144
     total cpu time spent up to now is      599.0 secs

     Computing kpt #:    61  of   144
     total cpu time spent up to now is      609.3 secs

     Computing kpt #:    62  of   144
     total cpu time spent up to now is      619.3 secs

     Computing kpt #:    63  of   144
     total cpu time spent up to now is      628.8 secs

     Computing kpt #:    64  of   144
     total cpu time spent up to now is      639.3 secs

     Computing kpt #:    65  of   144
     total cpu time spent up to now is      648.7 secs

     Computing kpt #:    66  of   144
     total cpu time spent up to now is      658.0 secs

     Computing kpt #:    67  of   144
     total cpu time spent up to now is      667.1 secs

     Computing kpt #:    68  of   144
     total cpu time spent up to now is      677.3 secs

     Computing kpt #:    69  of   144
     total cpu time spent up to now is      686.9 secs

     Computing kpt #:    70  of   144
     total cpu time spent up to now is      696.1 secs

     Computing kpt #:    71  of   144
     total cpu time spent up to now is      705.1 secs

     Computing kpt #:    72  of   144
     total cpu time spent up to now is      714.7 secs

     Computing kpt #:    73  of   144
     total cpu time spent up to now is      724.1 secs

     Computing kpt #:    74  of   144
     total cpu time spent up to now is      733.3 secs

     Computing kpt #:    75  of   144
     total cpu time spent up to now is      744.3 secs

     Computing kpt #:    76  of   144
     total cpu time spent up to now is      754.7 secs

     Computing kpt #:    77  of   144
     total cpu time spent up to now is      763.6 secs

     Computing kpt #:    78  of   144
     total cpu time spent up to now is      774.1 secs

     Computing kpt #:    79  of   144
     total cpu time spent up to now is      782.9 secs

     Computing kpt #:    80  of   144
     total cpu time spent up to now is      792.4 secs

     Computing kpt #:    81  of   144
     total cpu time spent up to now is      802.7 secs

     Computing kpt #:    82  of   144
     total cpu time spent up to now is      813.3 secs

     Computing kpt #:    83  of   144
     total cpu time spent up to now is      823.1 secs

     Computing kpt #:    84  of   144
     total cpu time spent up to now is      831.9 secs

     Computing kpt #:    85  of   144
     total cpu time spent up to now is      841.8 secs

     Computing kpt #:    86  of   144
     total cpu time spent up to now is      852.1 secs

     Computing kpt #:    87  of   144
     total cpu time spent up to now is      862.0 secs

     Computing kpt #:    88  of   144
     total cpu time spent up to now is      872.1 secs

     Computing kpt #:    89  of   144
     total cpu time spent up to now is      882.5 secs

     Computing kpt #:    90  of   144
     total cpu time spent up to now is      891.2 secs

     Computing kpt #:    91  of   144
     total cpu time spent up to now is      899.5 secs

     Computing kpt #:    92  of   144
     total cpu time spent up to now is      909.0 secs

     Computing kpt #:    93  of   144
     total cpu time spent up to now is      917.2 secs

     Computing kpt #:    94  of   144
     total cpu time spent up to now is      926.8 secs

     Computing kpt #:    95  of   144
     total cpu time spent up to now is      936.0 secs

     Computing kpt #:    96  of   144
     total cpu time spent up to now is      944.8 secs

     Computing kpt #:    97  of   144
     total cpu time spent up to now is      954.2 secs

     Computing kpt #:    98  of   144
     total cpu time spent up to now is      963.0 secs

     Computing kpt #:    99  of   144
     total cpu time spent up to now is      974.1 secs

     Computing kpt #:   100  of   144
     total cpu time spent up to now is      983.9 secs

     Computing kpt #:   101  of   144
     total cpu time spent up to now is      994.0 secs

     Computing kpt #:   102  of   144
     total cpu time spent up to now is     1003.2 secs

     Computing kpt #:   103  of   144
     total cpu time spent up to now is     1013.3 secs

     Computing kpt #:   104  of   144
     total cpu time spent up to now is     1023.4 secs

     Computing kpt #:   105  of   144
     total cpu time spent up to now is     1032.8 secs

     Computing kpt #:   106  of   144
     total cpu time spent up to now is     1042.7 secs

     Computing kpt #:   107  of   144
     total cpu time spent up to now is     1052.5 secs

     Computing kpt #:   108  of   144
     total cpu time spent up to now is     1063.1 secs

     Computing kpt #:   109  of   144
     total cpu time spent up to now is     1073.4 secs

     Computing kpt #:   110  of   144
     total cpu time spent up to now is     1082.0 secs

     Computing kpt #:   111  of   144
     total cpu time spent up to now is     1091.6 secs

     Computing kpt #:   112  of   144
     total cpu time spent up to now is     1100.8 secs

     Computing kpt #:   113  of   144
     total cpu time spent up to now is     1110.5 secs

     Computing kpt #:   114  of   144
     total cpu time spent up to now is     1121.2 secs

     Computing kpt #:   115  of   144
     total cpu time spent up to now is     1129.8 secs

     Computing kpt #:   116  of   144
     total cpu time spent up to now is     1140.8 secs

     Computing kpt #:   117  of   144
     total cpu time spent up to now is     1150.7 secs

     Computing kpt #:   118  of   144
     total cpu time spent up to now is     1159.1 secs

     Computing kpt #:   119  of   144
     total cpu time spent up to now is     1168.0 secs

     Computing kpt #:   120  of   144
     total cpu time spent up to now is     1177.8 secs

     Computing kpt #:   121  of   144
     total cpu time spent up to now is     1188.0 secs

     Computing kpt #:   122  of   144
     total cpu time spent up to now is     1197.4 secs

     Computing kpt #:   123  of   144
     total cpu time spent up to now is     1207.3 secs

     Computing kpt #:   124  of   144
     total cpu time spent up to now is     1215.8 secs

     Computing kpt #:   125  of   144
     total cpu time spent up to now is     1225.9 secs

     Computing kpt #:   126  of   144
     total cpu time spent up to now is     1235.8 secs

     Computing kpt #:   127  of   144
     total cpu time spent up to now is     1247.1 secs

     Computing kpt #:   128  of   144
     total cpu time spent up to now is     1255.9 secs

     Computing kpt #:   129  of   144
     total cpu time spent up to now is     1265.5 secs

     Computing kpt #:   130  of   144
     total cpu time spent up to now is     1273.7 secs

     Computing kpt #:   131  of   144
     total cpu time spent up to now is     1282.2 secs

     Computing kpt #:   132  of   144
     total cpu time spent up to now is     1291.1 secs

     Computing kpt #:   133  of   144
     total cpu time spent up to now is     1301.5 secs

     Computing kpt #:   134  of   144
     total cpu time spent up to now is     1310.9 secs

     Computing kpt #:   135  of   144
     total cpu time spent up to now is     1320.1 secs

     Computing kpt #:   136  of   144
     total cpu time spent up to now is     1330.6 secs

     Computing kpt #:   137  of   144
     total cpu time spent up to now is     1339.5 secs

     Computing kpt #:   138  of   144
     total cpu time spent up to now is     1347.8 secs

     Computing kpt #:   139  of   144
     total cpu time spent up to now is     1356.5 secs

     Computing kpt #:   140  of   144
     total cpu time spent up to now is     1365.3 secs

     Computing kpt #:   141  of   144
     total cpu time spent up to now is     1373.4 secs

     Computing kpt #:   142  of   144
     total cpu time spent up to now is     1382.6 secs

     Computing kpt #:   143  of   144
     total cpu time spent up to now is     1392.0 secs

     Computing kpt #:   144  of   144
     total cpu time spent up to now is     1401.5 secs

     ethr =  4.17E-11,  avg # of iterations = 40.3

     total cpu time spent up to now is     1401.6 secs

     End of band structure calculation

 ------ SPIN UP ------------


          k = 0.0000 0.0000 0.0000 (   941 PWs)   bands (ev):

   -90.9804 -51.3224 -51.3224 -51.3224  -5.6195   7.3427   7.3428   8.0851
     8.0852   8.0852  11.8603  11.8603  11.8603  15.9171  32.1239  33.1039
    33.1039  33.1039  36.3670  36.3670  36.3670  39.9520  39.9520  50.5242
    50.5429  50.5429  50.5429  67.6886  67.6886  67.6886  70.5476  70.5477
    70.6640  70.6640  70.6641  73.8823  87.5479  87.5479  87.5479  90.3121

     occupation numbers 
     1.0000   1.0000   1.0000   1.0000   1.0000   1.0000   1.0000   1.0000
     1.0000   1.0000   1.0000   1.0000   1.0000   0.0000   0.0000   0.0000
     0.0000   0.0000   0.0000   0.0000   0.0000   0.0000   0.0000   0.0000
     0.0000   0.0000   0.0000   0.0000   0.0000   0.0000   0.0000   0.0000
     0.0000   0.0000   0.0000   0.0000   0.0000   0.0000   0.0000   0.0000

          k =-0.0833 0.0833-0.0833 (   944 PWs)   bands (ev):

   -90.9803 -51.3243 -51.3226 -51.3226  -5.5364   7.2403   7.2404   7.9957
     8.1081   8.1082  11.4309  12.0092  12.0092  16.4609  30.4126  32.8484
    32.8484  33.9823  35.8152  35.8152  37.4099  41.1331  41.1331  49.2500
    50.5230  50.5230  52.0308  64.8244  64.8244  67.8556  70.6561  70.7142
    70.7142  73.8027  73.8027  73.9569  86.1482  86.1482  86.2956  88.0754

     occupation numbers 
     1.0000   1.0000   1.0000   1.0000   1.0000   1.0000   1.0000   1.0000
     1.0000   1.0000   1.0000   1.0000   1.0000   0.0000   0.0000   0.0000
     0.0000   0.0000   0.0000   0.0000   0.0000   0.0000   0.0000   0.0000
     0.0000   0.0000   0.0000   0.0000   0.0000   0.0000   0.0000   0.0000
     0.0000   0.0000   0.0000   0.0000   0.0000   0.0000   0.0000   0.0000

          k =-0.1667 0.1667-0.1667 (   947 PWs)   bands (ev):

   -90.9801 -51.3292 -51.3233 -51.3233  -5.3008   6.9661   6.9662   7.6595
     8.2014   8.2014  10.7029  12.3837  12.3837  17.5903  28.2816  31.8517
    31.8517  34.3380  35.6795  35.6795  39.8603  43.2859  43.2859  47.8195
    50.4823  50.4823  54.2018  61.4885  61.4886  68.3524  70.4027  71.0042
    71.0042  73.9215  77.9578  77.9578  81.7089  81.7089  83.0214  86.0818

     occupation numbers 
     1.0000   1.0000   1.0000   1.0000   1.0000   1.0000   1.0000   1.0000
     1.0000   1.0000   1.0000   1.0000   1.0000   0.0000   0.0000   0.0000
     0.0000   0.0000   0.0000   0.0000   0.0000   0.0000   0.0000   0.0000
     0.0000   0.0000   0.0000   0.0000   0.0000   0.0000   0.0000   0.0000
     0.0000   0.0000   0.0000   0.0000   0.0000   0.0000   0.0000   0.0000

          k =-0.2500 0.2500-0.2500 (   947 PWs)   bands (ev):

   -90.9797 -51.3364 -51.3241 -51.3241  -4.9550   6.6245   6.6245   7.0022
     8.3580   8.3580  10.2735  12.8434  12.8434  18.7329  26.4587  30.4891
    30.4891  34.5447  36.3933  36.3933  42.3607  45.0766  45.0766  46.7582
    50.7079  50.7079  57.1084  59.0163  59.0163  69.1097  69.1629  71.4066
    71.4066  73.2722  76.4225  76.4225  80.3980  81.6417  81.6417  82.9165

     occupation numbers 
     1.0000   1.0000   1.0000   1.0000   1.0000   1.0000   1.0000   1.0000
     1.0000   1.0000   1.0000   1.0000   1.0000   0.0000   0.0000   0.0000
     0.0000   0.0000   0.0000   0.0000   0.0000   0.0000   0.0000   0.0000
     0.0000   0.0000   0.0000   0.0000   0.0000   0.0000   0.0000   0.0000
     0.0000   0.0000   0.0000   0.0000   0.0000   0.0000   0.0000   0.0000

          k =-0.3333 0.3333-0.3333 (   956 PWs)   bands (ev):

   -90.9797 -51.3437 -51.3251 -51.3251  -4.5749   6.2102   6.3190   6.3191
     8.5294   8.5294  10.1832  13.2657  13.2657  19.5479  25.2004  29.2939
    29.2939  34.8343  37.5996  37.5996  42.5926  45.2387  45.2387  48.4295
    51.9866  51.9866  57.7475  57.7475  60.5052  65.9038  70.2399  70.8214
    70.8214  72.6330  72.9503  72.9503  78.1009  80.0698  81.2849  81.7398

     occupation numbers 
     1.0000   1.0000   1.0000   1.0000   1.0000   1.0000   1.0000   1.0000
     1.0000   1.0000   1.0000   1.0000   1.0000   0.0000   0.0000   0.0000
     0.0000   0.0000   0.0000   0.0000   0.0000   0.0000   0.0000   0.0000
     0.0000   0.0000   0.0000   0.0000   0.0000   0.0000   0.0000   0.0000
     0.0000   0.0000   0.0000   0.0000   0.0000   0.0000   0.0000   0.0000

          k =-0.4167 0.4167-0.4167 (   963 PWs)   bands (ev):

   -90.9798 -51.3486 -51.3260 -51.3260  -4.2687   5.5936   6.1140   6.1141
     8.6610   8.6611  10.2366  13.5601  13.5601  19.8727  24.6230  28.4994
    28.4994  35.1944  39.0319  39.0319  41.5026  44.0437  44.0437  52.1955
    53.6367  53.6367  57.8910  57.8910  61.0067  64.6879  67.3046  67.3046
    71.4193  72.3765  73.0496  73.0496  74.4705  77.8270  80.3387  80.3387

     occupation numbers 
     1.0000   1.0000   1.0000   1.0000   1.0000   1.0000   1.0000   1.0000
     1.0000   1.0000   1.0000   1.0000   1.0000   0.0000   0.0000   0.0000
     0.0000   0.0000   0.0000   0.0000   0.0000   0.0000   0.0000   0.0000
     0.0000   0.0000   0.0000   0.0000   0.0000   0.0000   0.0000   0.0000
     0.0000   0.0000   0.0000   0.0000   0.0000   0.0000   0.0000   0.0000

          k = 0.5000-0.5000 0.5000 (   960 PWs)   bands (ev):

   -90.9799 -51.3505 -51.3261 -51.3261  -4.1494   5.3646   6.0423   6.0424
     8.7104   8.7104  10.2742  13.6659  13.6659  19.9116  24.5012  28.2215
    28.2215  35.3857  39.9245  39.9245  40.9772  43.1352  43.1352  54.2085
    54.2085  56.5030  56.6159  58.6507  58.6507  65.3728  65.3728  67.0016
    71.8888  72.0724  72.3681  73.2797  73.2797  76.8192  79.7783  79.7783

     occupation numbers 
     1.0000   1.0000   1.0000   1.0000   1.0000   1.0000   1.0000   1.0000
     1.0000   1.0000   1.0000   1.0000   1.0000   0.0000   0.0000   0.0000
     0.0000   0.0000   0.0000   0.0000   0.0000   0.0000   0.0000   0.0000
     0.0000   0.0000   0.0000   0.0000   0.0000   0.0000   0.0000   0.0000
     0.0000   0.0000   0.0000   0.0000   0.0000   0.0000   0.0000   0.0000

          k = 0.0000 0.1667 0.0000 (   945 PWs)   bands (ev):

   -90.9803 -51.3241 -51.3231 -51.3231  -5.5108   7.0683   7.3636   8.0308
     8.0849   8.0850  11.6437  11.8604  11.8604  16.6548  30.4573  32.3334
    32.3334  33.8374  35.2944  37.6561  37.6561  40.1098  42.0337  49.1724
    50.3868  50.3868  52.4707  63.8955  65.7889  65.7890  70.7928  70.8729
    72.8006  72.8006  73.9772  74.7423  85.4110  85.5758  85.5758  87.1907

     occupation numbers 
     1.0000   1.0000   1.0000   1.0000   1.0000   1.0000   1.0000   1.0000
     1.0000   1.0000   1.0000   1.0000   1.0000   0.0000   0.0000   0.0000
     0.0000   0.0000   0.0000   0.0000   0.0000   0.0000   0.0000   0.0000
     0.0000   0.0000   0.0000   0.0000   0.0000   0.0000   0.0000   0.0000
     0.0000   0.0000   0.0000   0.0000   0.0000   0.0000   0.0000   0.0000

          k =-0.0833 0.2500-0.0833 (   951 PWs)   bands (ev):

   -90.9802 -51.3280 -51.3240 -51.3235  -5.3320   6.7701   7.2518   7.8432
     8.1391   8.1481  11.0181  11.9922  12.2453  17.5860  28.8910  31.4289
    31.6493  33.1584  36.0743  37.8302  39.5617  41.6464  43.6327  48.0793
    50.1690  50.4720  54.2440  60.9109  63.3859  65.5814  70.7633  71.2142
    73.3700  73.9615  75.6182  78.4518  81.0381  82.4308  84.1694  85.0502

     occupation numbers 
     1.0000   1.0000   1.0000   1.0000   1.0000   1.0000   1.0000   1.0000
     1.0000   1.0000   1.0000   1.0000   1.0000   0.0000   0.0000   0.0000
     0.0000   0.0000   0.0000   0.0000   0.0000   0.0000   0.0000   0.0000
     0.0000   0.0000   0.0000   0.0000   0.0000   0.0000   0.0000   0.0000
     0.0000   0.0000   0.0000   0.0000   0.0000   0.0000   0.0000   0.0000

          k =-0.1667 0.3333-0.1667 (   952 PWs)   bands (ev):

   -90.9798 -51.3343 -51.3251 -51.3242  -5.0323   6.4341   6.9419   7.3788
     8.2509   8.3175  10.4465  12.3290  12.7339  18.7091  27.0356  29.9777
    30.7019  33.8630  36.3278  37.9888  42.1417  43.9201  45.1527  46.9136
    49.8513  51.0415  56.8223  58.3919  60.6173  66.0853  70.0482  71.7327
    73.1697  73.4259  75.9166  79.4640  79.5306  80.3986  81.0243  82.5495

     occupation numbers 
     1.0000   1.0000   1.0000   1.0000   1.0000   1.0000   1.0000   1.0000
     1.0000   1.0000   1.0000   1.0000   1.0000   0.0000   0.0000   0.0000
     0.0000   0.0000   0.0000   0.0000   0.0000   0.0000   0.0000   0.0000
     0.0000   0.0000   0.0000   0.0000   0.0000   0.0000   0.0000   0.0000
     0.0000   0.0000   0.0000   0.0000   0.0000   0.0000   0.0000   0.0000

          k =-0.2500 0.4167-0.2500 (   961 PWs)   bands (ev):

   -90.9797 -51.3413 -51.3260 -51.3254  -4.6745   6.1154   6.5886   6.7206
     8.4031   8.5115  10.2222  12.7531  13.1267  19.6633  25.5403  28.7986
    29.6895  34.7554  36.7783  38.7333  43.1812  44.9698  45.4584  47.9668
    50.3003  52.4485  57.0895  58.3747  60.1078  66.8677  67.5308  70.3571
    72.3955  72.5460  73.6784  76.0338  78.3192  78.3499  80.4705  81.7241

     occupation numbers 
     1.0000   1.0000   1.0000   1.0000   1.0000   1.0000   1.0000   1.0000
     1.0000   1.0000   1.0000   1.0000   1.0000   0.0000   0.0000   0.0000
     0.0000   0.0000   0.0000   0.0000   0.0000   0.0000   0.0000   0.0000
     0.0000   0.0000   0.0000   0.0000   0.0000   0.0000   0.0000   0.0000
     0.0000   0.0000   0.0000   0.0000   0.0000   0.0000   0.0000   0.0000

          k =-0.3333 0.5000-0.3333 (   967 PWs)   bands (ev):

   -90.9797 -51.3469 -51.3267 -51.3266  -4.3524   5.7769   6.2323   6.2954
     8.5546   8.6613  10.2153  13.1640  13.3366  20.2038  24.6694  28.0109
    28.8734  35.5625  37.6001  39.7474  42.1841  44.0493  45.1557  51.1636
    52.2346  54.0405  57.0529  57.8524  62.1660  64.3696  67.0053  67.4447
    70.1951  72.9297  73.2563  73.3351  75.5381  78.1816  78.8434  80.3667

     occupation numbers 
     1.0000   1.0000   1.0000   1.0000   1.0000   1.0000   1.0000   1.0000
     1.0000   1.0000   1.0000   1.0000   1.0000   0.0000   0.0000   0.0000
     0.0000   0.0000   0.0000   0.0000   0.0000   0.0000   0.0000   0.0000
     0.0000   0.0000   0.0000   0.0000   0.0000   0.0000   0.0000   0.0000
     0.0000   0.0000   0.0000   0.0000   0.0000   0.0000   0.0000   0.0000

          k = 0.5833-0.4167 0.5833 (   964 PWs)   bands (ev):

   -90.9797 -51.3499 -51.3273 -51.3266  -4.1733   5.5025   6.1071   6.1154
     8.6529   8.7233  10.2538  13.3348  13.4772  20.3482  24.3857  27.6518
    28.4403  36.1616  38.3589  39.9749  41.9056  43.4042  44.0344  53.9294
    53.9662  55.3529  58.0035  58.2081  59.2083  63.3579  65.7220  68.1687
    70.1981  71.3226  72.2713  72.7899  73.9068  77.3286  78.9549  80.1847

     occupation numbers 
     1.0000   1.0000   1.0000   1.0000   1.0000   1.0000   1.0000   1.0000
     1.0000   1.0000   1.0000   1.0000   1.0000   0.0000   0.0000   0.0000
     0.0000   0.0000   0.0000   0.0000   0.0000   0.0000   0.0000   0.0000
     0.0000   0.0000   0.0000   0.0000   0.0000   0.0000   0.0000   0.0000
     0.0000   0.0000   0.0000   0.0000   0.0000   0.0000   0.0000   0.0000

          k = 0.5000-0.3333 0.5000 (   967 PWs)   bands (ev):

   -90.9797 -51.3493 -51.3277 -51.3262  -4.2088   5.5494   6.0715   6.2112
     8.6578   8.6843  10.2491  13.1456  13.6206  20.3259  24.4449  27.7106
    28.5028  36.2499  38.6006  38.8452  42.5418  43.3518  44.3879  52.8015
    54.2516  54.5898  57.3407  58.7443  59.8773  64.8054  65.4532  67.5672
    69.5154  71.7564  72.6320  73.1110  74.4414  77.2434  78.6771  80.5134

     occupation numbers 
     1.0000   1.0000   1.0000   1.0000   1.0000   1.0000   1.0000   1.0000
     1.0000   1.0000   1.0000   1.0000   1.0000   0.0000   0.0000   0.0000
     0.0000   0.0000   0.0000   0.0000   0.0000   0.0000   0.0000   0.0000
     0.0000   0.0000   0.0000   0.0000   0.0000   0.0000   0.0000   0.0000
     0.0000   0.0000   0.0000   0.0000   0.0000   0.0000   0.0000   0.0000

          k = 0.4167-0.2500 0.4167 (   959 PWs)   bands (ev):

   -90.9796 -51.3451 -51.3274 -51.3252  -4.4442   5.9146   6.1648   6.5191
     8.5614   8.5641  10.2197  12.8186  13.5517  20.0698  24.9027  28.1576
    29.1023  35.9692  36.9187  38.8142  42.7722  44.3381  45.5811  49.9655
    51.3090  53.9661  56.4710  58.2826  61.9922  65.0408  68.0178  68.7075
    69.2861  72.4871  73.3183  74.0969  77.0636  78.1406  78.8632  81.1457

     occupation numbers 
     1.0000   1.0000   1.0000   1.0000   1.0000   1.0000   1.0000   1.0000
     1.0000   1.0000   1.0000   1.0000   1.0000   0.0000   0.0000   0.0000
     0.0000   0.0000   0.0000   0.0000   0.0000   0.0000   0.0000   0.0000
     0.0000   0.0000   0.0000   0.0000   0.0000   0.0000   0.0000   0.0000
     0.0000   0.0000   0.0000   0.0000   0.0000   0.0000   0.0000   0.0000

          k = 0.3333-0.1667 0.3333 (   955 PWs)   bands (ev):

   -90.9797 -51.3390 -51.3265 -51.3241  -4.7898   6.3773   6.3996   7.0383
     8.3938   8.4056  10.2799  12.4184  13.2773  19.3617  25.9833  28.9260
    30.2129  35.4456  35.7069  38.0717  43.3733  44.3906  45.9729  47.1067
    49.9074  52.2747  56.9404  58.9125  59.4488  66.8644  68.5315  70.9267
    72.7690  73.1173  74.1661  76.0836  78.6750  79.6510  81.3073  82.3165

     occupation numbers 
     1.0000   1.0000   1.0000   1.0000   1.0000   1.0000   1.0000   1.0000
     1.0000   1.0000   1.0000   1.0000   1.0000   0.0000   0.0000   0.0000
     0.0000   0.0000   0.0000   0.0000   0.0000   0.0000   0.0000   0.0000
     0.0000   0.0000   0.0000   0.0000   0.0000   0.0000   0.0000   0.0000
     0.0000   0.0000   0.0000   0.0000   0.0000   0.0000   0.0000   0.0000

          k = 0.2500-0.0833 0.2500 (   954 PWs)   bands (ev):

   -90.9800 -51.3322 -51.3253 -51.3232  -5.1381   6.6702   6.8462   7.5907
     8.2115   8.2582  10.5884  12.0401  12.8556  18.2996  27.5908  29.9326
    31.7643  34.2913  35.4467  37.3218  41.6087  43.1122  44.9857  46.9546
    49.9874  51.1313  55.6879  58.9542  61.8594  65.9856  70.3301  70.8983
    73.6905  74.0944  77.0684  79.0753  79.7158  80.7512  82.3072  82.6285

     occupation numbers 
     1.0000   1.0000   1.0000   1.0000   1.0000   1.0000   1.0000   1.0000
     1.0000   1.0000   1.0000   1.0000   1.0000   0.0000   0.0000   0.0000
     0.0000   0.0000   0.0000   0.0000   0.0000   0.0000   0.0000   0.0000
     0.0000   0.0000   0.0000   0.0000   0.0000   0.0000   0.0000   0.0000
     0.0000   0.0000   0.0000   0.0000   0.0000   0.0000   0.0000   0.0000

          k = 0.1667-0.0000 0.1667 (   945 PWs)   bands (ev):

   -90.9801 -51.3266 -51.3239 -51.3227  -5.4045   6.9827   7.1705   7.9064
     8.1009   8.1587  11.1105  11.8582  12.3874  17.1842  29.2846  31.2414
    33.4000  33.7240  34.8856  36.7558  39.2083  41.3807  43.0771  48.3528
    50.2575  50.7003  53.3733  61.7418  64.7162  65.7093  70.6986  70.7220
    73.5337  73.9991  74.2514  77.3003  82.8899  84.1593  84.4937  85.5526

     occupation numbers 
     1.0000   1.0000   1.0000   1.0000   1.0000   1.0000   1.0000   1.0000
     1.0000   1.0000   1.0000   1.0000   1.0000   0.0000   0.0000   0.0000
     0.0000   0.0000   0.0000   0.0000   0.0000   0.0000   0.0000   0.0000
     0.0000   0.0000   0.0000   0.0000   0.0000   0.0000   0.0000   0.0000
     0.0000   0.0000   0.0000   0.0000   0.0000   0.0000   0.0000   0.0000

          k = 0.0000 0.3333 0.0000 (   962 PWs)   bands (ev):

   -90.9803 -51.3289 -51.3252 -51.3252  -5.2264   6.4868   7.4207   7.8828
     8.1150   8.1150  11.3047  11.8071  11.8071  18.2382  28.8683  30.2759
    31.3347  31.3347  38.4374  40.2094  40.2094  40.5904  44.1809  47.9589
    49.9138  49.9138  55.7714  59.4308  63.4003  63.4003  71.1466  71.4981
    73.8638  75.1439  75.1439  79.6426  79.6426  80.2270  82.4632  82.8975

     occupation numbers 
     1.0000   1.0000   1.0000   1.0000   1.0000   1.0000   1.0000   1.0000
     1.0000   1.0000   1.0000   1.0000   1.0000   0.0000   0.0000   0.0000
     0.0000   0.0000   0.0000   0.0000   0.0000   0.0000   0.0000   0.0000
     0.0000   0.0000   0.0000   0.0000   0.0000   0.0000   0.0000   0.0000
     0.0000   0.0000   0.0000   0.0000   0.0000   0.0000   0.0000   0.0000

          k =-0.0833 0.4167-0.0833 (   959 PWs)   bands (ev):

   -90.9798 -51.3334 -51.3264 -51.3260  -5.0051   6.2211   7.2858   7.6735
     8.1707   8.2531  10.7710  11.8731  12.1449  19.1728  27.6250  28.6069
    30.8321  31.8137  39.2111  39.9704  42.4862  42.9608  44.9405  47.2093
    49.4624  50.2672  57.2538  58.1169  61.6282  63.0273  71.0283  71.6150
    73.0637  74.0738  74.4220  78.4359  78.5027  80.1856  81.4908  82.8098

     occupation numbers 
     1.0000   1.0000   1.0000   1.0000   1.0000   1.0000   1.0000   1.0000
     1.0000   1.0000   1.0000   1.0000   1.0000   0.0000   0.0000   0.0000
     0.0000   0.0000   0.0000   0.0000   0.0000   0.0000   0.0000   0.0000
     0.0000   0.0000   0.0000   0.0000   0.0000   0.0000   0.0000   0.0000
     0.0000   0.0000   0.0000   0.0000   0.0000   0.0000   0.0000   0.0000

          k =-0.1667 0.5000-0.1667 (   965 PWs)   bands (ev):

   -90.9795 -51.3394 -51.3275 -51.3273  -4.7160   6.0295   6.9535   7.2203
     8.2628   8.4863  10.3459  12.1427  12.5073  20.1140  25.9687  27.6049
    30.1627  32.8588  39.3728  40.1697  44.1843  44.9005  44.9818  47.8604
    49.1512  51.9399  55.9797  59.1249  61.0666  63.3711  68.9181  69.6330
    71.6963  72.3100  73.5656  77.5553  78.1022  79.6138  79.7230  79.9055

     occupation numbers 
     1.0000   1.0000   1.0000   1.0000   1.0000   1.0000   1.0000   1.0000
     1.0000   1.0000   1.0000   1.0000   1.0000   0.0000   0.0000   0.0000
     0.0000   0.0000   0.0000   0.0000   0.0000   0.0000   0.0000   0.0000
     0.0000   0.0000   0.0000   0.0000   0.0000   0.0000   0.0000   0.0000
     0.0000   0.0000   0.0000   0.0000   0.0000   0.0000   0.0000   0.0000

          k =-0.2500 0.5833-0.2500 (   971 PWs)   bands (ev):

   -90.9795 -51.3446 -51.3289 -51.3281  -4.4309   5.9365   6.6054   6.6564
     8.3907   8.6743  10.2018  12.5348  12.6467  20.8736  24.7180  26.9939
    29.4930  34.0241  39.5455  40.6391  43.0221  44.5495  45.6329  50.7132
    50.8286  54.2164  55.9626  57.4897  62.3665  63.9900  66.3168  66.5607
    69.2619  72.1438  73.3415  74.6638  75.8790  78.9472  79.1809  79.6615

     occupation numbers 
     1.0000   1.0000   1.0000   1.0000   1.0000   1.0000   1.0000   1.0000
     1.0000   1.0000   1.0000   1.0000   1.0000   0.0000   0.0000   0.0000
     0.0000   0.0000   0.0000   0.0000   0.0000   0.0000   0.0000   0.0000
     0.0000   0.0000   0.0000   0.0000   0.0000   0.0000   0.0000   0.0000
     0.0000   0.0000   0.0000   0.0000   0.0000   0.0000   0.0000   0.0000

          k = 0.6667-0.3333 0.6667 (   972 PWs)   bands (ev):

   -90.9793 -51.3479 -51.3305 -51.3281  -4.2338   5.8719   6.3115   6.3297
     8.5091   8.7600  10.1977  12.5562  12.9622  21.3095  24.0835  26.6521
    29.0145  35.2442  39.4351  40.2262  42.6411  44.1162  45.3417  53.2574
    53.9152  54.5574  57.1328  58.4110  60.2216  62.0657  64.3173  67.3720
    69.0326  71.1450  71.2953  73.2122  75.3495  76.3688  79.1411  79.4557

     occupation numbers 
     1.0000   1.0000   1.0000   1.0000   1.0000   1.0000   1.0000   1.0000
     1.0000   1.0000   1.0000   1.0000   1.0000   0.0000   0.0000   0.0000
     0.0000   0.0000   0.0000   0.0000   0.0000   0.0000   0.0000   0.0000
     0.0000   0.0000   0.0000   0.0000   0.0000   0.0000   0.0000   0.0000
     0.0000   0.0000   0.0000   0.0000   0.0000   0.0000   0.0000   0.0000

          k = 0.5833-0.2500 0.5833 (   965 PWs)   bands (ev):

   -90.9791 -51.3482 -51.3314 -51.3273  -4.1919   5.7558   6.1673   6.4198
     8.5581   8.7359  10.2316  12.3193  13.3268  21.3974  24.0466  26.4910
    28.8727  36.5591  38.5838  38.8674  43.3742  44.6706  44.9300  52.2295
    54.9441  55.8947  57.4094  59.0483  59.0936  63.2491  63.4753  66.9925
    69.2253  69.2374  71.4059  73.0402  74.9354  76.0948  79.2219  80.0917

     occupation numbers 
     1.0000   1.0000   1.0000   1.0000   1.0000   1.0000   1.0000   1.0000
     1.0000   1.0000   1.0000   1.0000   1.0000   0.0000   0.0000   0.0000
     0.0000   0.0000   0.0000   0.0000   0.0000   0.0000   0.0000   0.0000
     0.0000   0.0000   0.0000   0.0000   0.0000   0.0000   0.0000   0.0000
     0.0000   0.0000   0.0000   0.0000   0.0000   0.0000   0.0000   0.0000

          k = 0.5000-0.1667 0.5000 (   969 PWs)   bands (ev):

   -90.9793 -51.3456 -51.3316 -51.3263  -4.3216   5.8159   6.1322   6.7661
     8.5052   8.6295  10.2855  12.0298  13.5320  21.1117  24.5484  26.5421
    29.1530  36.8033  37.8109  38.3411  43.5829  44.7196  45.9123  50.3030
    52.8098  54.9003  55.7867  58.8878  62.7913  64.6148  65.6040  66.8223
    67.7886  70.0897  71.6026  72.7880  76.7394  78.3781  79.1098  80.7409

     occupation numbers 
     1.0000   1.0000   1.0000   1.0000   1.0000   1.0000   1.0000   1.0000
     1.0000   1.0000   1.0000   1.0000   1.0000   0.0000   0.0000   0.0000
     0.0000   0.0000   0.0000   0.0000   0.0000   0.0000   0.0000   0.0000
     0.0000   0.0000   0.0000   0.0000   0.0000   0.0000   0.0000   0.0000
     0.0000   0.0000   0.0000   0.0000   0.0000   0.0000   0.0000   0.0000

          k = 0.4167-0.0833 0.4167 (   960 PWs)   bands (ev):

   -90.9794 -51.3410 -51.3304 -51.3249  -4.5773   6.0807   6.2193   7.1934
     8.3729   8.4865  10.3907  11.7777  13.5140  20.3770  25.6050  26.9236
    29.8678  35.3182  37.7047  38.5663  43.4970  44.7496  46.4366  48.6419
    49.5929  54.4783  54.9435  59.5818  61.3740  64.2789  68.1842  69.9180
    70.2789  72.1609  72.1985  72.8843  78.7558  79.2065  81.0160  81.4450

     occupation numbers 
     1.0000   1.0000   1.0000   1.0000   1.0000   1.0000   1.0000   1.0000
     1.0000   1.0000   1.0000   1.0000   1.0000   0.0000   0.0000   0.0000
     0.0000   0.0000   0.0000   0.0000   0.0000   0.0000   0.0000   0.0000
     0.0000   0.0000   0.0000   0.0000   0.0000   0.0000   0.0000   0.0000
     0.0000   0.0000   0.0000   0.0000   0.0000   0.0000   0.0000   0.0000

          k = 0.3333 0.0000 0.3333 (   949 PWs)   bands (ev):

   -90.9795 -51.3359 -51.3281 -51.3237  -4.8767   6.4090   6.4671   7.5165
     8.2423   8.3527  10.5274  11.7295  13.2688  19.3460  26.7979  27.9618
    30.9037  34.3304  36.8493  38.1999  43.1169  44.9308  45.5514  46.1644
    49.6804  52.4662  56.2747  58.5029  61.4316  63.9992  70.1923  70.5625
    73.0724  74.6649  74.6829  75.8341  77.9117  80.9577  81.6201  82.2179

     occupation numbers 
     1.0000   1.0000   1.0000   1.0000   1.0000   1.0000   1.0000   1.0000
     1.0000   1.0000   1.0000   1.0000   1.0000   0.0000   0.0000   0.0000
     0.0000   0.0000   0.0000   0.0000   0.0000   0.0000   0.0000   0.0000
     0.0000   0.0000   0.0000   0.0000   0.0000   0.0000   0.0000   0.0000
     0.0000   0.0000   0.0000   0.0000   0.0000   0.0000   0.0000   0.0000

          k = 0.0000 0.5000 0.0000 (   982 PWs)   bands (ev):

   -90.9801 -51.3357 -51.3280 -51.3280  -4.8814   6.0808   7.4992   7.6828
     8.2366   8.2367  10.9403  11.6006  11.6006  19.8170  27.2506  27.7075
    30.7977  30.7977  41.4149  42.1339  43.2950  43.2950  44.6154  47.8664
    49.1569  49.1569  55.4043  60.3329  61.5333  61.5333  70.8030  71.3571
    71.6976  71.6976  73.6144  76.3684  79.0867  79.0867  81.3790  84.5981

     occupation numbers 
     1.0000   1.0000   1.0000   1.0000   1.0000   1.0000   1.0000   1.0000
     1.0000   1.0000   1.0000   1.0000   1.0000   0.0000   0.0000   0.0000
     0.0000   0.0000   0.0000   0.0000   0.0000   0.0000   0.0000   0.0000
     0.0000   0.0000   0.0000   0.0000   0.0000   0.0000   0.0000   0.0000
     0.0000   0.0000   0.0000   0.0000   0.0000   0.0000   0.0000   0.0000

          k =-0.0833 0.5833-0.0833 (   971 PWs)   bands (ev):

   -90.9795 -51.3394 -51.3294 -51.3291  -4.6912   6.0521   7.3503   7.5017
     8.2949   8.4441  10.4854  11.5799  11.7221  20.4813  26.0172  26.9861
    30.5489  31.2819  41.6140  42.7835  44.2728  45.3452  45.7630  47.6433
    48.5911  50.5036  54.0355  60.0957  61.1690  62.9247  67.8100  68.9886
    69.9651  70.9843  73.7183  74.4865  79.2123  79.3962  80.9144  83.1262

     occupation numbers 
     1.0000   1.0000   1.0000   1.0000   1.0000   1.0000   1.0000   1.0000
     1.0000   1.0000   1.0000   1.0000   1.0000   0.0000   0.0000   0.0000
     0.0000   0.0000   0.0000   0.0000   0.0000   0.0000   0.0000   0.0000
     0.0000   0.0000   0.0000   0.0000   0.0000   0.0000   0.0000   0.0000
     0.0000   0.0000   0.0000   0.0000   0.0000   0.0000   0.0000   0.0000

          k =-0.1667 0.6667-0.1667 (   969 PWs)   bands (ev):

   -90.9791 -51.3433 -51.3313 -51.3298  -4.4815   6.1491   7.0126   7.1385
     8.3173   8.6890  10.1639  11.7952  11.8126  21.1435  24.9260  26.3692
    30.1493  32.2670  41.6906  42.8535  43.6262  45.5761  45.9387  49.7699
    50.2914  53.3718  54.0782  58.0152  61.3179  62.5174  66.5163  66.7299
    68.4581  70.1158  72.2966  74.4063  78.0109  78.3598  80.0468  80.6514

     occupation numbers 
     1.0000   1.0000   1.0000   1.0000   1.0000   1.0000   1.0000   1.0000
     1.0000   1.0000   1.0000   1.0000   1.0000   0.0000   0.0000   0.0000
     0.0000   0.0000   0.0000   0.0000   0.0000   0.0000   0.0000   0.0000
     0.0000   0.0000   0.0000   0.0000   0.0000   0.0000   0.0000   0.0000
     0.0000   0.0000   0.0000   0.0000   0.0000   0.0000   0.0000   0.0000

          k = 0.7500-0.2500 0.7500 (   963 PWs)   bands (ev):

   -90.9787 -51.3457 -51.3337 -51.3297  -4.3073   6.3339   6.6675   6.6864
     8.3688   8.8157  10.0929  11.6480  12.2412  21.8265  24.0974  25.9777
    29.7411  33.3257  40.8803  42.4080  43.4381  45.0585  45.8996  52.6014
    53.9898  54.4596  55.3194  58.1243  58.7231  61.6957  64.3927  64.8703
[...]

          k = 0.5000-0.1667 0.6667 (   964 PWs)   bands (ev):

   -88.7352 -49.1590 -49.1457 -49.1387  -3.6768   6.6858   8.2747   9.5268
    10.6946  10.8489  11.4122  16.8717  17.7780  22.4848  24.4090  26.2038
    29.4732  36.6793  37.4517  41.3839  44.4108  45.6032  46.3086  51.7585
    54.9221  56.2194  56.8740  59.3185  60.6756  62.6828  64.3872  66.1834
    66.5914  69.8921  71.8319  74.4744  75.3606  76.3830  78.2769  80.4146

     occupation numbers 
     1.0000   1.0000   1.0000   1.0000   1.0000   1.0000   1.0000   1.0000
     1.0000   1.0000   1.0000   0.0000   0.0000   0.0000   0.0000   0.0000
     0.0000   0.0000   0.0000   0.0000   0.0000   0.0000   0.0000   0.0000
     0.0000   0.0000   0.0000   0.0000   0.0000   0.0000   0.0000   0.0000
     0.0000   0.0000   0.0000   0.0000   0.0000   0.0000   0.0000   0.0000

          k = 0.4167-0.0833 0.5833 (   963 PWs)   bands (ev):

   -88.7354 -49.1560 -49.1449 -49.1373  -3.8700   7.0774   8.1133   9.5656
    10.5326  10.8595  11.7974  16.5368  17.8869  21.9621  25.2002  26.2135
    29.8583  35.5528  38.5544  40.6048  44.1471  46.0715  46.7480  49.7484
    52.6368  54.4006  56.8306  59.0490  62.6899  64.2041  65.8902  67.1716
    68.3371  69.9485  71.3093  73.9776  77.3903  78.2021  79.3095  80.6558

     occupation numbers 
     1.0000   1.0000   1.0000   1.0000   1.0000   1.0000   1.0000   1.0000
     1.0000   1.0000   1.0000   0.0000   0.0000   0.0000   0.0000   0.0000
     0.0000   0.0000   0.0000   0.0000   0.0000   0.0000   0.0000   0.0000
     0.0000   0.0000   0.0000   0.0000   0.0000   0.0000   0.0000   0.0000
     0.0000   0.0000   0.0000   0.0000   0.0000   0.0000   0.0000   0.0000

          k = 0.3333 0.0000 0.5000 (   962 PWs)   bands (ev):

   -88.7358 -49.1524 -49.1422 -49.1359  -4.1574   7.6112   8.1151   9.4799
    10.4058  11.0630  12.0722  16.2905  17.7256  21.0995  26.3005  26.7225
    30.4854  34.4082  39.4571  39.6207  43.8579  45.7855  47.0919  48.4092
    49.7272  54.2964  55.3932  60.2843  62.3560  62.8740  69.1610  69.8492
    70.1372  70.7057  74.0290  74.1965  78.8628  79.7519  80.3322  81.1780

     occupation numbers 
     1.0000   1.0000   1.0000   1.0000   1.0000   1.0000   1.0000   1.0000
     1.0000   1.0000   1.0000   0.0000   0.0000   0.0000   0.0000   0.0000
     0.0000   0.0000   0.0000   0.0000   0.0000   0.0000   0.0000   0.0000
     0.0000   0.0000   0.0000   0.0000   0.0000   0.0000   0.0000   0.0000
     0.0000   0.0000   0.0000   0.0000   0.0000   0.0000   0.0000   0.0000

          k =-0.1667 0.6667-0.0000 (   971 PWs)   bands (ev):

   -88.7349 -49.1550 -49.1425 -49.1408  -3.9492   7.9389   8.2345   9.4878
     9.7481  11.3994  11.7276  16.2688  16.9241  21.6078  25.7016  26.6789
    30.7198  32.0504  42.2624  44.4578  44.6008  46.7352  47.0038  48.5780
    49.4804  52.3525  53.7111  60.1090  60.1125  64.5881  65.1903  67.6170
    69.3880  69.9162  73.6180  73.9783  78.4107  78.9170  81.5760  82.0244

     occupation numbers 
     1.0000   1.0000   1.0000   1.0000   1.0000   1.0000   1.0000   1.0000
     1.0000   1.0000   1.0000   0.0000   0.0000   0.0000   0.0000   0.0000
     0.0000   0.0000   0.0000   0.0000   0.0000   0.0000   0.0000   0.0000
     0.0000   0.0000   0.0000   0.0000   0.0000   0.0000   0.0000   0.0000
     0.0000   0.0000   0.0000   0.0000   0.0000   0.0000   0.0000   0.0000

          k = 0.7500-0.2500 0.9167 (   967 PWs)   bands (ev):

   -88.7345 -49.1574 -49.1451 -49.1416  -3.7295   7.5137   8.1711   9.6302
    10.1631  10.9431  11.4332  16.5040  17.0965  22.0649  25.0930  26.1894
    30.2523  33.0080  41.2305  44.4854  45.4719  46.2209  46.5286  50.1170
    53.0791  53.5931  55.5934  58.3151  60.2672  60.9222  63.2315  67.3915
    69.7516  70.0791  71.1071  73.8937  76.1324  78.6593  78.8224  81.6999

     occupation numbers 
     1.0000   1.0000   1.0000   1.0000   1.0000   1.0000   1.0000   1.0000
     1.0000   1.0000   1.0000   0.0000   0.0000   0.0000   0.0000   0.0000
     0.0000   0.0000   0.0000   0.0000   0.0000   0.0000   0.0000   0.0000
     0.0000   0.0000   0.0000   0.0000   0.0000   0.0000   0.0000   0.0000
     0.0000   0.0000   0.0000   0.0000   0.0000   0.0000   0.0000   0.0000

          k = 0.6667-0.1667 0.8333 (   966 PWs)   bands (ev):

   -88.7345 -49.1578 -49.1481 -49.1416  -3.5850   7.2162   8.1173   9.7125
    10.4576  10.7801  11.0860  16.7641  17.1623  22.7243  24.5463  25.8664
    29.8240  34.0422  39.7135  44.5261  44.9813  46.1598  46.6850  53.1747
    54.4040  54.7306  57.2913  57.4912  59.8233  61.0705  61.6684  64.7079
    67.6424  70.5643  71.4851  73.4367  75.5904  76.8543  78.8491  79.2010

     occupation numbers 
     1.0000   1.0000   1.0000   1.0000   1.0000   1.0000   1.0000   1.0000
     1.0000   1.0000   1.0000   0.0000   0.0000   0.0000   0.0000   0.0000
     0.0000   0.0000   0.0000   0.0000   0.0000   0.0000   0.0000   0.0000
     0.0000   0.0000   0.0000   0.0000   0.0000   0.0000   0.0000   0.0000
     0.0000   0.0000   0.0000   0.0000   0.0000   0.0000   0.0000   0.0000

          k = 0.5833-0.0833 0.7500 (   969 PWs)   bands (ev):

   -88.7347 -49.1563 -49.1508 -49.1407  -3.5624   7.1579   7.9138   9.7959
    10.3918  10.7978  11.1775  16.7004  17.4537  23.5277  23.9939  25.5403
    29.6402  35.2575  38.0663  43.5331  45.0643  46.4227  47.4702  51.1804
    54.8607  56.3138  57.6408  59.9972  60.3073  60.7826  62.1761  64.1469
    66.3230  68.5548  71.3940  75.3223  75.6089  76.1288  77.2099  78.5295

     occupation numbers 
     1.0000   1.0000   1.0000   1.0000   1.0000   1.0000   1.0000   1.0000
     1.0000   1.0000   1.0000   0.0000   0.0000   0.0000   0.0000   0.0000
     0.0000   0.0000   0.0000   0.0000   0.0000   0.0000   0.0000   0.0000
     0.0000   0.0000   0.0000   0.0000   0.0000   0.0000   0.0000   0.0000
     0.0000   0.0000   0.0000   0.0000   0.0000   0.0000   0.0000   0.0000

          k = 0.5000 0.0000 0.6667 (   957 PWs)   bands (ev):

   -88.7347 -49.1554 -49.1495 -49.1389  -3.6693   7.2049   7.7844   9.7735
    10.4186  10.7272  11.5571  16.5490  17.7682  23.0543  24.5452  25.4640
    29.6989  36.5908  36.8287  42.3034  44.8130  46.6001  47.7030  49.2947
    53.9061  56.2091  58.0742  58.9143  61.3871  61.7652  65.1290  66.4369
    66.9936  67.1018  70.7961  74.2616  76.3866  77.2995  78.1231  78.4695

     occupation numbers 
     1.0000   1.0000   1.0000   1.0000   1.0000   1.0000   1.0000   1.0000
     1.0000   1.0000   1.0000   0.0000   0.0000   0.0000   0.0000   0.0000
     0.0000   0.0000   0.0000   0.0000   0.0000   0.0000   0.0000   0.0000
     0.0000   0.0000   0.0000   0.0000   0.0000   0.0000   0.0000   0.0000
     0.0000   0.0000   0.0000   0.0000   0.0000   0.0000   0.0000   0.0000

          k = 0.8333-0.1667 1.0000 (   977 PWs)   bands (ev):

   -88.7343 -49.1594 -49.1448 -49.1436  -3.6523   7.8625   8.1099   9.8299
     9.9732  10.9113  11.2208  16.3475  16.8088  21.4957  25.3413  26.3797
    30.6831  32.1117  42.7836  44.2148  46.8155  47.3003  49.1245  49.3788
    51.8463  53.6169  54.2727  58.5018  58.7758  60.7513  61.5039  64.3024
    66.5569  71.6713  73.8550  74.8500  77.0780  77.7642  81.2389  82.8630

     occupation numbers 
     1.0000   1.0000   1.0000   1.0000   1.0000   1.0000   1.0000   1.0000
     1.0000   1.0000   1.0000   0.0000   0.0000   0.0000   0.0000   0.0000
     0.0000   0.0000   0.0000   0.0000   0.0000   0.0000   0.0000   0.0000
     0.0000   0.0000   0.0000   0.0000   0.0000   0.0000   0.0000   0.0000
     0.0000   0.0000   0.0000   0.0000   0.0000   0.0000   0.0000   0.0000

          k = 0.7500-0.0833 0.9167 (   972 PWs)   bands (ev):

   -88.7341 -49.1590 -49.1476 -49.1436  -3.5472   7.7225   7.9862   9.9722
    10.2797  10.5605  10.9789  16.5328  16.8592  21.9662  25.2826  25.8972
    30.1498  32.9597  41.2402  44.3836  46.4664  46.7908  49.3007  51.5893
    53.6791  54.3627  56.3564  57.6957  58.9889  59.2999  60.4785  63.0115
    66.9760  70.1254  73.9197  74.7118  75.5041  77.3915  78.3269  81.2558

     occupation numbers 
     1.0000   1.0000   1.0000   1.0000   1.0000   1.0000   1.0000   1.0000
     1.0000   1.0000   1.0000   0.0000   0.0000   0.0000   0.0000   0.0000
     0.0000   0.0000   0.0000   0.0000   0.0000   0.0000   0.0000   0.0000
     0.0000   0.0000   0.0000   0.0000   0.0000   0.0000   0.0000   0.0000
     0.0000   0.0000   0.0000   0.0000   0.0000   0.0000   0.0000   0.0000

          k = 0.6667 0.0000 0.8333 (   974 PWs)   bands (ev):

   -88.7344 -49.1568 -49.1511 -49.1425  -3.5144   7.6408   7.7426   9.9997
    10.2091  10.8133  10.8392  16.6480  17.0719  22.7596  25.0591  25.3294
    29.8044  33.9240  39.5129  44.8803  45.1163  46.6752  50.0620  50.3690
    54.9055  55.9957  56.4885  57.3256  60.2598  60.6395  62.0503  62.5910
    65.8354  68.6214  71.6431  75.6189  76.2319  76.4586  77.4892  78.7925

     occupation numbers 
     1.0000   1.0000   1.0000   1.0000   1.0000   1.0000   1.0000   1.0000
     1.0000   1.0000   1.0000   0.0000   0.0000   0.0000   0.0000   0.0000
     0.0000   0.0000   0.0000   0.0000   0.0000   0.0000   0.0000   0.0000
     0.0000   0.0000   0.0000   0.0000   0.0000   0.0000   0.0000   0.0000
     0.0000   0.0000   0.0000   0.0000   0.0000   0.0000   0.0000   0.0000

          k =-0.1667-1.0000 0.0000 (   962 PWs)   bands (ev):

   -88.7336 -49.1607 -49.1456 -49.1444  -3.5461   7.8886   8.0644  10.0996
    10.2691  10.5034  10.8840  16.3738  16.7055  21.3094  25.4212  26.2856
    30.6809  32.1778  43.0554  43.8481  47.2128  47.2295  49.3343  52.9290
    52.9820  54.2619  54.4399  57.9315  58.4434  58.6021  60.1722  60.8513
    65.0322  74.4864  74.7999  75.3101  76.1436  76.1705  80.9509  82.8879

     occupation numbers 
     1.0000   1.0000   1.0000   1.0000   1.0000   1.0000   1.0000   1.0000
     1.0000   1.0000   1.0000   0.0000   0.0000   0.0000   0.0000   0.0000
     0.0000   0.0000   0.0000   0.0000   0.0000   0.0000   0.0000   0.0000
     0.0000   0.0000   0.0000   0.0000   0.0000   0.0000   0.0000   0.0000
     0.0000   0.0000   0.0000   0.0000   0.0000   0.0000   0.0000   0.0000

          k = 0.6667-0.3333 1.0000 (   958 PWs)   bands (ev):

   -88.7348 -49.1556 -49.1454 -49.1393  -3.8177   7.4573   7.9737   9.6497
    10.2464  10.8991  11.7121  16.4264  17.4961  22.2483  25.2860  25.9220
    29.9462  34.1302  39.6612  43.0852  44.5964  46.4084  46.9587  48.8508
    52.6322  54.0174  56.5301  59.2102  60.7109  63.3586  63.6414  68.4345
    68.9950  70.9803  72.6929  73.0407  74.3476  78.3969  79.6057  79.9694

     occupation numbers 
     1.0000   1.0000   1.0000   1.0000   1.0000   1.0000   1.0000   1.0000
     1.0000   1.0000   1.0000   0.0000   0.0000   0.0000   0.0000   0.0000
     0.0000   0.0000   0.0000   0.0000   0.0000   0.0000   0.0000   0.0000
     0.0000   0.0000   0.0000   0.0000   0.0000   0.0000   0.0000   0.0000
     0.0000   0.0000   0.0000   0.0000   0.0000   0.0000   0.0000   0.0000

          k = 0.5833-0.2500 0.9167 (   966 PWs)   bands (ev):

   -88.7347 -49.1569 -49.1482 -49.1407  -3.6322   7.1981   7.9932   9.7297
    10.3713  10.7414  11.3941  16.6158  17.4493  23.0483  24.4959  25.7703
    29.3897  35.3177  38.1607  44.0296  45.3189  45.9449  46.7641  50.5632
    54.4135  56.2134  56.9639  59.1949  59.3483  61.4484  63.1679  65.6666
    68.7073  70.3477  71.6796  72.2312  73.9816  77.1256  78.0160  79.2090

     occupation numbers 
     1.0000   1.0000   1.0000   1.0000   1.0000   1.0000   1.0000   1.0000
     1.0000   1.0000   1.0000   0.0000   0.0000   0.0000   0.0000   0.0000
     0.0000   0.0000   0.0000   0.0000   0.0000   0.0000   0.0000   0.0000
     0.0000   0.0000   0.0000   0.0000   0.0000   0.0000   0.0000   0.0000
     0.0000   0.0000   0.0000   0.0000   0.0000   0.0000   0.0000   0.0000

          k = 0.5000-0.1667 0.8333 (   960 PWs)   bands (ev):

   -88.7344 -49.1572 -49.1491 -49.1412  -3.5622   7.0697   8.0683   9.7072
    10.3515  10.9769  11.0610  16.7646  17.3443  23.7177  23.8408  25.8032
    29.1316  36.2451  37.1318  44.7855  44.9161  46.0563  46.3229  53.0660
    54.4713  55.2108  56.9678  59.8802  60.6367  60.8252  62.1183  65.4942
    65.9274  70.4164  71.4038  72.3361  75.7539  76.2759  76.3361  79.5047

     occupation numbers 
     1.0000   1.0000   1.0000   1.0000   1.0000   1.0000   1.0000   1.0000
     1.0000   1.0000   1.0000   0.0000   0.0000   0.0000   0.0000   0.0000
     0.0000   0.0000   0.0000   0.0000   0.0000   0.0000   0.0000   0.0000
     0.0000   0.0000   0.0000   0.0000   0.0000   0.0000   0.0000   0.0000
     0.0000   0.0000   0.0000   0.0000   0.0000   0.0000   0.0000   0.0000

          k = 0.6667-0.1667 1.0000 (   965 PWs)   bands (ev):

   -88.7342 -49.1574 -49.1479 -49.1428  -3.5842   7.6108   7.8987   9.9082
    10.1435  10.6431  11.2507  16.4991  17.1151  22.6012  25.0679  25.7649
    29.4272  34.0825  39.6129  45.0471  46.1939  46.4599  48.8097  48.9943
    54.0512  56.3073  56.6599  57.7731  59.3312  60.2080  60.3931  66.5936
    69.3901  70.3394  70.9089  72.3340  73.2171  77.3298  78.4809  80.2126

     occupation numbers 
     1.0000   1.0000   1.0000   1.0000   1.0000   1.0000   1.0000   1.0000
     1.0000   1.0000   1.0000   0.0000   0.0000   0.0000   0.0000   0.0000
     0.0000   0.0000   0.0000   0.0000   0.0000   0.0000   0.0000   0.0000
     0.0000   0.0000   0.0000   0.0000   0.0000   0.0000   0.0000   0.0000
     0.0000   0.0000   0.0000   0.0000   0.0000   0.0000   0.0000   0.0000

          k = 0.5833-0.0833 0.9167 (   963 PWs)   bands (ev):

   -88.7341 -49.1557 -49.1509 -49.1433  -3.5096   7.5585   7.8548   9.8951
    10.0718  10.8207  11.0035  16.5795  17.0880  23.2361  24.9579  25.5337
    28.7632  35.2613  38.0893  45.1546  46.2103  46.6517  48.4090  51.5517
    54.1330  55.4958  56.4005  57.7568  59.2879  60.9901  63.3243  64.8800
    67.2169  69.0007  70.0928  71.1182  74.8075  76.2128  77.2123  80.2306

     occupation numbers 
     1.0000   1.0000   1.0000   1.0000   1.0000   1.0000   1.0000   1.0000
     1.0000   1.0000   1.0000   0.0000   0.0000   0.0000   0.0000   0.0000
     0.0000   0.0000   0.0000   0.0000   0.0000   0.0000   0.0000   0.0000
     0.0000   0.0000   0.0000   0.0000   0.0000   0.0000   0.0000   0.0000
     0.0000   0.0000   0.0000   0.0000   0.0000   0.0000   0.0000   0.0000

          k = 0.5000 0.0000 0.8333 (   967 PWs)   bands (ev):

   -88.7344 -49.1545 -49.1524 -49.1423  -3.5274   7.5084   7.7538   9.9633
    10.0310  10.8063  11.1357  16.5838  17.2394  23.6312  24.5750  25.4063
    28.8421  36.5557  36.6320  45.4822  45.5698  46.0150  49.3090  49.4584
    55.0810  56.4299  57.2377  57.3461  59.6831  60.4282  65.3019  65.7230
    66.4085  66.4562  71.3858  72.0193  74.4521  75.7316  77.2520  79.5314

     occupation numbers 
     1.0000   1.0000   1.0000   1.0000   1.0000   1.0000   1.0000   1.0000
     1.0000   1.0000   1.0000   0.0000   0.0000   0.0000   0.0000   0.0000
     0.0000   0.0000   0.0000   0.0000   0.0000   0.0000   0.0000   0.0000
     0.0000   0.0000   0.0000   0.0000   0.0000   0.0000   0.0000   0.0000
     0.0000   0.0000   0.0000   0.0000   0.0000   0.0000   0.0000   0.0000

          k =-0.3333-1.0000 0.0000 (   970 PWs)   bands (ev):

   -88.7341 -49.1577 -49.1489 -49.1444  -3.5036   7.7676   7.8752   9.9738
    10.1000  10.6179  10.9740  16.4969  16.9321  22.5346  25.3516  25.7242
    29.1026  34.1017  39.6647  44.6697  46.6271  47.2849  50.0537  51.4926
    53.3977  54.7927  55.1488  58.5398  58.6948  61.1542  61.1921  62.7638
    67.7197  70.3396  70.6317  72.0867  75.7175  75.9092  78.0635  80.3552

     occupation numbers 
     1.0000   1.0000   1.0000   1.0000   1.0000   1.0000   1.0000   1.0000
     1.0000   1.0000   1.0000   0.0000   0.0000   0.0000   0.0000   0.0000
     0.0000   0.0000   0.0000   0.0000   0.0000   0.0000   0.0000   0.0000
     0.0000   0.0000   0.0000   0.0000   0.0000   0.0000   0.0000   0.0000
     0.0000   0.0000   0.0000   0.0000   0.0000   0.0000   0.0000   0.0000

          k =-0.5000-1.0000 0.0000 (   952 PWs)   bands (ev):

   -88.7337 -49.1532 -49.1531 -49.1441  -3.4820   7.7516   7.7520   9.7413
    10.1001  10.8977  10.8983  16.5219  17.0320  23.4331  25.4033  25.4034
    28.0690  36.6511  36.6512  45.1864  46.2429  47.3144  50.5435  50.5435
    53.0312  55.2077  57.0939  57.0939  57.8305  62.8698  65.9470  65.9470
    66.7021  66.7021  68.0855  70.3154  73.4954  76.8807  76.8807  80.5166

     occupation numbers 
     1.0000   1.0000   1.0000   1.0000   1.0000   1.0000   1.0000   1.0000
     1.0000   1.0000   1.0000   0.0000   0.0000   0.0000   0.0000   0.0000
     0.0000   0.0000   0.0000   0.0000   0.0000   0.0000   0.0000   0.0000
     0.0000   0.0000   0.0000   0.0000   0.0000   0.0000   0.0000   0.0000
     0.0000   0.0000   0.0000   0.0000   0.0000   0.0000   0.0000   0.0000

     the spin up/dw Fermi energies are    14.2848   14.2848 ev
     (compare with:    14.3895   14.3895 eV, computed in scf)

     Writing all to output data dir ./outdir/NiO.save/ :
     XML data file, pseudopotentials, collected wavefunctions

     init_run     :      1.94s CPU      1.13s WALL (       1 calls)
     electrons    :   2386.33s CPU   1400.41s WALL (       1 calls)

     Called by init_run:
     wfcinit      :      0.67s CPU      0.13s WALL (       1 calls)
     wfcinit:atom :      0.12s CPU      0.02s WALL (     144 calls)
     wfcinit:wfcr :     62.40s CPU     42.20s WALL (     144 calls)
     potinit      :      0.48s CPU      0.41s WALL (       1 calls)
     hinit0       :      0.52s CPU      0.53s WALL (       1 calls)

     Called by electrons:
     c_bands      :   2384.80s CPU   1400.28s WALL (       1 calls)
     v_of_rho     :      0.04s CPU      0.01s WALL (       1 calls)
     v_h          :      0.00s CPU      0.00s WALL (       1 calls)
     v_xc         :      0.04s CPU      0.01s WALL (       1 calls)
     newd         :      0.25s CPU      0.05s WALL (       1 calls)
     PAW_pot      :      0.23s CPU      0.13s WALL (       1 calls)

     Called by c_bands:
     init_us_2    :      0.34s CPU      0.07s WALL (     288 calls)
     cegterg      :   2318.88s CPU   1357.34s WALL (     355 calls)

     Called by sum_band:

     Called by *egterg:
     cdiaghg      :     51.04s CPU      8.74s WALL (    5952 calls)
     cegterg:over :      9.58s CPU      1.26s WALL (    5808 calls)
     cegterg:upda :      8.79s CPU      1.34s WALL (    5808 calls)
     cegterg:last :     10.70s CPU      1.53s WALL (    4382 calls)
     h_psi        :   2285.95s CPU   1384.31s WALL (    6307 calls)
     s_psi        :      2.00s CPU      0.34s WALL (    6595 calls)
     g_psi        :      3.93s CPU      0.52s WALL (    5808 calls)

     Called by h_psi:
     h_psi:calbec :      0.86s CPU      0.48s WALL (    6307 calls)
     vloc_psi     :   2278.39s CPU   1382.55s WALL (    6307 calls)
                                        0.00s GPU  (    6307 calls)
     add_vuspsi   :      1.64s CPU      0.39s WALL (    6307 calls)
     vhpsi        :      1.39s CPU      0.25s WALL (    6307 calls)

     General routines
     calbec       :      1.45s CPU      0.58s WALL (   12758 calls)
     fft          :      0.35s CPU      0.36s WALL (      23 calls)
     ffts         :      0.21s CPU      0.26s WALL (       2 calls)
     fftw         :   2265.26s CPU   1373.92s WALL (  363326 calls)
     interpolate  :      0.21s CPU      0.26s WALL (       2 calls)
     davcio       :      2.44s CPU      0.56s WALL (     720 calls)

     Parallel routines

     Hubbard U routines
     vhpsi        :      1.39s CPU      0.25s WALL (    6307 calls)

     PAW routines
     PAW_pot      :      0.23s CPU      0.13s WALL (       1 calls)

     PWSCF        :  39m48.38s CPU  23m21.73s WALL


   This run was terminated on:  13:29:38   7Mar2026            

=------------------------------------------------------------------------------=
   JOB DONE.
=------------------------------------------------------------------------------=
