# LAMMPS data file for NaCl solution

3036 atoms
2000 bonds
1000 angles
0 dihedrals
0 impropers

4 atom types
1 bond types
1 angle types

-15.8 15.8 xlo xhi
-15.8 15.8 ylo yhi
-15.8 15.8 zlo zhi

Masses

1 15.9994
2 1.008
3 22.9898
4 35.453

Atoms

1 1 1 -0.8476 -11.352597 14.790687 0.501274
2 1 2 0.4238 -11.040763 14.207919 -0.249154
3 1 2 0.4238 -11.233426 15.751024 0.249177
4 2 1 -0.8476 -6.665189 -13.672178 13.894325
5 2 2 0.4238 -6.98949 -14.345985 14.558262
6 2 2 0.4238 -7.442385 -13.311592 13.378627
7 3 1 -0.8476 7.323052 -4.060346 -5.590958
8 3 2 0.4238 7.215824 -4.954832 -5.156911
9 3 2 0.4238 8.28903 -3.801747 -5.587316
10 4 1 -0.8476 -9.830216 -15.802245 5.530198
11 4 2 0.4238 -10.216205 -14.902812 5.325181
12 4 2 0.4238 -8.847491 -15.714008 5.692881
13 5 1 -0.8476 -2.146832 9.32624 1.877956
14 5 2 0.4238 -3.103828 9.376706 1.592275
15 5 2 0.4238 -2.012353 8.518134 2.451438
16 6 1 -0.8476 -15.472318 4.199886 3.409138
17 6 2 0.4238 -15.797912 5.091574 3.723594
18 6 2 0.4238 -14.512962 4.272553 3.136454
19 7 1 -0.8476 -1.122968 -13.001636 -4.895107
20 7 2 0.4238 -2.11692 -13.025071 -5.002391
21 7 2 0.4238 -0.820188 -12.053271 -4.800618
22 8 1 -0.8476 -11.622561 -2.208557 -5.922846
23 8 2 0.4238 -10.772864 -2.611529 -6.262887
24 8 2 0.4238 -11.925891 -2.706549 -5.110445
25 9 1 -0.8476 -0.371888 -4.449509 -6.433136
26 9 2 0.4238 -1.045421 -5.099998 -6.082113
27 9 2 0.4238 0.397221 -4.948778 -6.83214
28 10 1 -0.8476 -3.71641 12.731198 -6.390357
29 10 2 0.4238 -3.143372 11.913191 -6.440264
30 10 2 0.4238 -4.611665 12.535947 -6.790852
31 11 1 -0.8476 -15.093575 2.150933 12.66901
32 11 2 0.4238 -14.212574 2.62285 12.702641
33 11 2 0.4238 -15.769851 2.738788 12.225076
34 12 1 -0.8476 7.521 -8.486466 -12.735697
35 12 2 0.4238 8.182605 -9.065354 -12.259076
36 12 2 0.4238 7.264738 -8.916368 -13.601442
37 13 1 -0.8476 2.012925 11.006939 -12.7945
38 13 2 0.4238 2.576558 10.213681 -12.564153
39 13 2 0.4238 1.048112 10.744148 -12.785697
40 14 1 -0.8476 -5.315959 5.592947 -1.149753
41 14 2 0.4238 -4.889342 5.173536 -0.348446
42 14 2 0.4238 -6.225896 5.928309 -0.90573
43 15 1 -0.8476 -5.700454 13.237632 5.299006
44 15 2 0.4238 -5.788864 13.223323 4.303025
45 15 2 0.4238 -4.761189 13.474997 5.546877
46 16 1 -0.8476 13.279889 -15.778377 9.351099
47 16 2 0.4238 14.263577 -15.799726 9.529713
48 16 2 0.4238 12.935942 -14.849752 9.49023
49 17 1 -0.8476 -0.452064 -1.468768 13.685686
50 17 2 0.4238 -1.285149 -1.003756 13.386128
51 17 2 0.4238 -0.694618 -2.318262 14.154223
52 18 1 -0.8476 10.316315 9.408523 14.142239
53 18 2 0.4238 9.941197 8.4924 14.283677
54 18 2 0.4238 11.192582 9.486949 14.61764
55 19 1 -0.8476 -14.962866 -4.973274 4.169896
56 19 2 0.4238 -14.185381 -5.052759 4.793755
57 19 2 0.4238 -15.800033 -4.82863 4.697371
58 20 1 -0.8476 -9.408725 13.814276 -11.844392
59 20 2 0.4238 -9.40452 14.751143 -11.49473
60 20 2 0.4238 -8.670731 13.294552 -11.413984
61 21 1 -0.8476 -6.439205 -6.688741 7.08452
62 21 2 0.4238 -5.504404 -7.001714 7.252437
63 21 2 0.4238 -6.595361 -6.618777 6.099268
64 22 1 -0.8476 -3.872408 8.645728 9.679159
65 22 2 0.4238 -3.553225 9.508766 9.287639
66 22 2 0.4238 -3.764101 7.914124 9.006088
67 23 1 -0.8476 1.197687 -13.138631 -11.179793
68 23 2 0.4238 2.013756 -12.561179 -11.155683
69 23 2 0.4238 0.598745 -12.901335 -10.414966
70 24 1 -0.8476 -12.684358 -5.948549 -2.894313
71 24 2 0.4238 -11.784729 -6.068193 -3.314257
72 24 2 0.4238 -12.748766 -6.519562 -2.075902
73 25 1 -0.8476 7.040347 -4.417192 12.210883
74 25 2 0.4238 7.028222 -5.417064 12.2004
75 25 2 0.4238 7.916878 -4.098247 12.571392
76 26 1 -0.8476 7.340234 3.892443 6.225251
77 26 2 0.4238 7.290385 2.931825 6.498616
78 26 2 0.4238 8.205406 4.283765 6.53885
79 27 1 -0.8476 -9.945872 -15.03637 8.333966
80 27 2 0.4238 -9.185785 -15.538044 7.92094
81 27 2 0.4238 -9.716701 -14.064161 8.381829
82 28 1 -0.8476 5.442495 -4.614607 -7.345019
83 28 2 0.4238 6.24694 -4.044487 -7.511847
84 28 2 0.4238 5.545863 -5.485625 -7.825272
85 29 1 -0.8476 -12.09391 13.267246 -6.538562
86 29 2 0.4238 -11.739176 13.786114 -5.760783
87 29 2 0.4238 -12.40382 13.900203 -7.248014
88 30 1 -0.8476 -8.34567 3.055402 -4.011307
89 30 2 0.4238 -7.863344 2.378855 -4.567765
90 30 2 0.4238 -8.269726 3.955344 -4.440651
91 31 1 -0.8476 -5.873179 -12.039862 -1.794786
92 31 2 0.4238 -5.208455 -11.995961 -2.540584
93 31 2 0.4238 -6.40883 -11.19564 -1.775593
94 32 1 -0.8476 -4.990429 -13.856791 0.196261
95 32 2 0.4238 -4.018533 -13.622001 0.1792
96 32 2 0.4238 -5.093262 -14.851442 0.18654
97 33 1 -0.8476 -0.667126 6.024249 -9.62993
98 33 2 0.4238 -1.40588 5.381283 -9.832015
99 33 2 0.4238 0.191032 5.522492 -9.521281
100 34 1 -0.8476 9.926749 10.624799 3.893139
101 34 2 0.4238 9.225111 11.005325 4.495556
102 34 2 0.4238 10.546441 10.048331 4.425742
103 35 1 -0.8476 14.139428 15.643961 1.759701
104 35 2 0.4238 14.352875 14.668155 1.712348
105 35 2 0.4238 13.193427 15.792589 1.471615
106 36 1 -0.8476 -12.413648 -12.802997 -15.291466
107 36 2 0.4238 -13.207503 -13.117096 -15.812173
108 36 2 0.4238 -12.449284 -11.808091 -15.197166
109 37 1 -0.8476 7.388034 -0.5369 9.862142
110 37 2 0.4238 6.79573 0.244568 9.665967
111 37 2 0.4238 6.926714 -1.152737 10.500835
112 38 1 -0.8476 1.669914 -13.725885 -8.233334
113 38 2 0.4238 0.680593 -13.623939 -8.337504
114 38 2 0.4238 1.888812 -13.887928 -7.271135
115 39 1 -0.8476 -8.019482 -7.941545 -3.670859
116 39 2 0.4238 -8.692539 -7.226406 -3.482257
117 39 2 0.4238 -7.13957 -7.521115 -3.892207
118 40 1 -0.8476 -2.112347 -13.966661 1.493436
119 40 2 0.4238 -1.763548 -13.752434 0.581051
120 40 2 0.4238 -1.350763 -14.217403 2.09103
121 41 1 -0.8476 -10.360923 -8.795462 2.474451
122 41 2 0.4238 -10.120359 -9.766062 2.466472
123 41 2 0.4238 -9.526415 -8.245018 2.449778
124 42 1 -0.8476 -9.59865 12.766281 13.144205
125 42 2 0.4238 -9.41904 12.76655 14.127944
126 42 2 0.4238 -9.370188 11.870075 12.763917
127 43 1 -0.8476 -12.203295 -12.147462 -4.831093
128 43 2 0.4238 -11.233581 -11.914407 -4.904165
129 43 2 0.4238 -12.312495 -13.140043 -4.884569
130 44 1 -0.8476 -12.797895 11.778037 3.02578
131 44 2 0.4238 -13.025208 11.705346 3.996885
132 44 2 0.4238 -13.501249 11.318432 2.48351
133 45 1 -0.8476 -3.190701 -2.513951 11.172109
134 45 2 0.4238 -2.233377 -2.706907 11.38728
135 45 2 0.4238 -3.349234 -1.527446 11.213046
136 46 1 -0.8476 0.518328 -14.84348 12.235478
137 46 2 0.4238 0.664714 -15.799863 11.982687
138 46 2 0.4238 -0.44993 -14.615869 12.132186
139 47 1 -0.8476 -6.161521 12.165764 -9.225226
140 47 2 0.4238 -5.544154 11.848073 -9.9449
141 47 2 0.4238 -6.310341 13.149675 -9.324082
142 48 1 -0.8476 3.925846 5.546488 -2.327862
143 48 2 0.4238 4.397312 5.666743 -3.201509
144 48 2 0.4238 4.328188 4.774701 -1.835454
145 49 1 -0.8476 7.410701 -6.756905 -2.058973
146 49 2 0.4238 8.355532 -6.756308 -1.731415
147 49 2 0.4238 7.401246 -6.620013 -3.049514
148 50 1 -0.8476 6.622327 10.290921 -11.722757
149 50 2 0.4238 5.886934 9.904337 -11.166205
150 50 2 0.4238 6.547827 11.288131 -11.727417
151 51 1 -0.8476 8.816502 -10.528747 -8.923724
152 51 2 0.4238 8.394996 -11.095794 -8.216059
153 51 2 0.4238 8.112615 -10.209764 -9.558383
154 52 1 -0.8476 4.333775 -11.030887 6.903073
155 52 2 0.4238 4.053828 -11.990902 6.90371
156 52 2 0.4238 3.521969 -10.446963 6.905378
157 53 1 -0.8476 -7.727231 15.072428 8.352952
158 53 2 0.4238 -6.860277 15.428492 8.701679
159 53 2 0.4238 -8.206073 15.793156 7.851692
160 54 1 -0.8476 0.097974 2.011641 9.416021
161 54 2 0.4238 -0.134119 1.045598 9.529579
162 54 2 0.4238 -0.200962 2.322429 8.513775
163 55 1 -0.8476 -0.409967 12.163675 8.709774
164 55 2 0.4238 0.128486 12.943359 9.029402
165 55 2 0.4238 -1.321575 12.197809 9.119417
166 56 1 -0.8476 2.852727 7.496757 -8.037957
167 56 2 0.4238 3.147522 6.949379 -8.821203
168 56 2 0.4238 2.220529 8.207299 -8.346918
169 57 1 -0.8476 12.850322 11.673044 -0.773206
170 57 2 0.4238 12.635263 12.595678 -1.093358
171 57 2 0.4238 13.791772 11.445043 -1.02158
172 58 1 -0.8476 5.121371 -0.794504 -4.471067
173 58 2 0.4238 5.315564 -0.946116 -5.440243
174 58 2 0.4238 5.959747 -0.917231 -3.939971
175 59 1 -0.8476 -1.087449 -15.207907 -11.016609
176 59 2 0.4238 -0.997786 -14.261138 -11.325785
177 59 2 0.4238 -0.51907 -15.800259 -11.587631
178 60 1 -0.8476 -10.03051 -13.027219 -9.288565
179 60 2 0.4238 -9.270555 -13.357841 -8.72896
180 60 2 0.4238 -10.334415 -13.756073 -9.902091
181 61 1 -0.8476 6.53192 -13.776381 12.930224
182 61 2 0.4238 7.473459 -13.65857 13.245858
183 61 2 0.4238 6.531834 -13.984291 11.952076
184 62 1 -0.8476 -5.46423 3.244014 2.065812
185 62 2 0.4238 -4.545758 3.639496 2.064032
186 62 2 0.4238 -5.397709 2.246605 2.038388
187 63 1 -0.8476 0.211101 -7.441172 10.574069
188 63 2 0.4238 0.205581 -6.505196 10.926089
189 63 2 0.4238 1.144791 -7.697888 10.324429
190 64 1 -0.8476 -3.921532 11.057604 -12.073119
191 64 2 0.4238 -3.587172 10.116451 -12.122479
192 64 2 0.4238 -4.90598 11.052805 -11.897508
193 65 1 -0.8476 -10.914912 4.258334 9.50379
194 65 2 0.4238 -11.441144 3.409024 9.545669
195 65 2 0.4238 -9.93781 4.046149 9.519542
196 66 1 -0.8476 11.096148 -13.462564 5.344413
197 66 2 0.4238 10.662463 -14.228232 5.819461
198 66 2 0.4238 11.999558 -13.294266 5.738782
199 67 1 -0.8476 -1.840956 -7.167873 9.424929
200 67 2 0.4238 -2.351224 -8.010009 9.599383
201 67 2 0.4238 -1.923474 -6.558691 10.213654
202 68 1 -0.8476 3.817471 -11.911219 -4.020405
203 68 2 0.4238 4.637696 -11.738895 -3.474935
204 68 2 0.4238 3.785632 -12.876804 -4.278536
205 69 1 -0.8476 4.260133 7.750813 11.430031
206 69 2 0.4238 4.728237 6.867177 11.421789
207 69 2 0.4238 4.936128 8.485604 11.485827
208 70 1 -0.8476 -9.967482 -1.181106 -3.720105
209 70 2 0.4238 -10.609798 -1.919047 -3.513046
210 70 2 0.4238 -9.113433 -1.333225 -3.222651
211 71 1 -0.8476 -12.681647 -9.426491 3.610813
212 71 2 0.4238 -13.610957 -9.73696 3.410831
213 71 2 0.4238 -12.679362 -8.432974 3.72448
214 72 1 -0.8476 -10.846453 7.745209 -10.138846
215 72 2 0.4238 -10.363146 6.880187 -10.273578
216 72 2 0.4238 -10.320409 8.488744 -10.551683
217 73 1 -0.8476 -0.875677 13.014128 -5.714446
218 73 2 0.4238 -0.384359 13.083218 -4.84621
219 73 2 0.4238 -1.766583 13.460341 -5.629702
220 74 1 -0.8476 -9.709829 0.062024 -8.24467
221 74 2 0.4238 -9.411916 -0.802587 -7.840077
222 74 2 0.4238 -8.933107 0.68947 -8.299565
223 75 1 -0.8476 1.513649 -9.375637 -1.337665
224 75 2 0.4238 2.251935 -8.752963 -1.078413
225 75 2 0.4238 1.680374 -10.275976 -0.935679
226 76 1 -0.8476 -15.059809 -6.878924 13.364423
227 76 2 0.4238 -14.179169 -7.340355 13.25693
228 76 2 0.4238 -15.800024 -7.534922 13.216946
229 77 1 -0.8476 15.063022 -0.292148 7.31251
230 77 2 0.4238 15.670928 -0.069336 6.550404
231 77 2 0.4238 15.492622 -0.986838 7.889442
232 78 1 -0.8476 -3.060039 5.785658 0.755233
233 78 2 0.4238 -2.455156 4.993915 0.840434
234 78 2 0.4238 -2.603702 6.595056 1.124871
235 79 1 -0.8476 -10.038022 3.179291 -2.610198
236 79 2 0.4238 -10.812089 2.798557 -3.116027
237 79 2 0.4238 -9.913114 4.13837 -2.864295
238 80 1 -0.8476 -4.592 -10.666401 -7.430229
239 80 2 0.4238 -3.893428 -9.96132 -7.552123
240 80 2 0.4238 -5.247261 -10.369811 -6.735486
241 81 1 -0.8476 4.734182 4.034762 -5.229227
242 81 2 0.4238 4.483391 3.070081 -5.30981
243 81 2 0.4238 5.632233 4.110613 -4.795925
244 82 1 -0.8476 -2.507057 -10.681843 -5.132655
245 82 2 0.4238 -2.467089 -10.237322 -4.237778
246 82 2 0.4238 -3.442218 -10.639582 -5.484347
247 83 1 -0.8476 -7.09612 15.49651 -11.359234
248 83 2 0.4238 -7.587444 15.786205 -12.180621
249 83 2 0.4238 -6.850903 14.530481 -11.440832
250 84 1 -0.8476 -15.201742 -8.037719 9.799704
251 84 2 0.4238 -15.798573 -7.238505 9.870773
252 84 2 0.4238 -15.755515 -8.853454 9.632629
253 85 1 -0.8476 -15.785415 3.307936 0.533942
254 85 2 0.4238 -15.024437 3.636653 1.093278
255 85 2 0.4238 -15.797746 2.308047 0.54244
256 86 1 -0.8476 7.146043 -6.248531 -13.213618
257 86 2 0.4238 6.63591 -6.815539 -13.860354
258 86 2 0.4238 6.552487 -5.999618 -12.448286
259 87 1 -0.8476 9.998412 2.941583 -2.409494
260 87 2 0.4238 10.521511 3.792041 -2.353908
261 87 2 0.4238 10.627538 2.165289 -2.449096
262 88 1 -0.8476 -7.351227 -12.304285 -7.069534
263 88 2 0.4238 -7.180893 -11.415432 -6.644178
264 88 2 0.4238 -7.016419 -12.292544 -8.011747
265 89 1 -0.8476 -1.559848 9.787479 -4.762984
266 89 2 0.4238 -2.333717 10.415234 -4.846952
267 89 2 0.4238 -0.815326 10.239991 -4.272147
268 90 1 -0.8476 -2.834391 10.240306 7.299101
269 90 2 0.4238 -1.83556 10.286489 7.284823
270 90 2 0.4238 -3.130394 9.332825 7.001004
271 91 1 -0.8476 -9.707547 9.735439 -15.800004
272 91 2 0.4238 -10.006399 10.689737 -15.798436
273 91 2 0.4238 -10.50766 9.135594 -15.797483
274 92 1 -0.8476 -13.155039 15.062606 9.327324
275 92 2 0.4238 -13.418225 14.320885 9.944238
276 92 2 0.4238 -13.963531 15.600767 9.089156
277 93 1 -0.8476 -3.680205 -6.032728 8.01102
278 93 2 0.4238 -4.166876 -5.161657 7.944781
279 93 2 0.4238 -2.702996 -5.880667 7.862896
280 94 1 -0.8476 1.259925 12.369674 -9.963267
281 94 2 0.4238 0.358515 12.252717 -9.546395
282 94 2 0.4238 1.696607 11.476319 -10.069215
283 95 1 -0.8476 -3.860133 -1.517801 -9.008927
284 95 2 0.4238 -3.097323 -1.400012 -8.373124
285 95 2 0.4238 -4.712769 -1.605852 -8.493894
286 96 1 -0.8476 15.801634 13.325859 4.230498
287 96 2 0.4238 15.332423 13.481572 5.099747
288 96 2 0.4238 15.498714 12.456879 3.839202
289 97 1 -0.8476 3.689482 8.854161 3.200977
290 97 2 0.4238 3.353719 9.793198 3.126995
291 97 2 0.4238 4.686836 8.861524 3.273304
292 98 1 -0.8476 -14.810704 11.429137 12.866827
293 98 2 0.4238 -15.310527 12.198384 13.264869
294 98 2 0.4238 -13.840499 11.50763 13.096046
295 99 1 -0.8476 -8.480672 -13.558154 5.464271
296 99 2 0.4238 -8.486559 -13.68365 6.456348
297 99 2 0.4238 -8.588255 -12.587216 5.250481
298 100 1 -0.8476 -11.647452 -12.263208 -12.478585
299 100 2 0.4238 -12.015323 -11.536377 -13.058574
300 100 2 0.4238 -11.657622 -13.127806 -12.980946
301 101 1 -0.8476 -2.851435 -5.15499 12.775057
302 101 2 0.4238 -2.393822 -5.131348 11.886219
303 101 2 0.4238 -3.276567 -4.26788 12.954773
304 102 1 -0.8476 -12.844491 14.942257 -3.383942
305 102 2 0.4238 -13.270554 14.042293 -3.47633
306 102 2 0.4238 -13.555069 15.644489 -3.339795
307 103 1 -0.8476 -4.784443 14.873475 8.22678
308 103 2 0.4238 -4.407953 15.794024 8.122636
309 103 2 0.4238 -4.036492 14.214325 8.304818
310 104 1 -0.8476 7.083134 -9.919439 -5.276489
311 104 2 0.4238 7.765671 -9.240971 -5.004781
312 104 2 0.4238 7.419048 -10.835825 -5.058777
313 105 1 -0.8476 11.176131 9.881378 -14.955231
314 105 2 0.4238 11.938589 10.002739 -14.319676
315 105 2 0.4238 11.363735 10.381991 -15.800329
316 106 1 -0.8476 0.382882 -13.966698 15.570795
317 106 2 0.4238 0.314203 -14.937645 15.80002
318 106 2 0.4238 1.161141 -13.822764 14.959569
319 107 1 -0.8476 4.936834 -7.407574 -11.735885
320 107 2 0.4238 4.293415 -7.379934 -12.5009
321 107 2 0.4238 5.532184 -8.205539 -11.829745
322 108 1 -0.8476 -12.173275 13.201448 13.403721
323 108 2 0.4238 -12.158659 13.928555 12.717352
324 108 2 0.4238 -11.516169 13.41284 14.12727
325 109 1 -0.8476 8.584802 2.808714 -15.071461
326 109 2 0.4238 8.72376 3.682382 -14.605205
327 109 2 0.4238 7.90957 2.923454 -15.800089
328 110 1 -0.8476 3.301017 11.396398 5.479042
329 110 2 0.4238 2.818891 11.693093 4.654708
330 110 2 0.4238 2.66316 10.921896 6.085661
331 111 1 -0.8476 14.217924 6.297956 -9.379899
332 111 2 0.4238 15.17222 6.096155 -9.159455
333 111 2 0.4238 13.844039 5.563239 -9.945939
334 112 1 -0.8476 -11.539939 12.126783 6.438083
335 112 2 0.4238 -11.281287 12.295049 7.389285
336 112 2 0.4238 -11.771773 11.161032 6.321553
337 113 1 -0.8476 -7.510729 -10.538447 1.94715
338 113 2 0.4238 -6.734209 -11.156042 1.822277
339 113 2 0.4238 -7.17617 -9.624765 2.177924
340 114 1 -0.8476 9.106698 -6.33331 10.819428
341 114 2 0.4238 9.841766 -6.990494 10.986115
342 114 2 0.4238 9.285246 -5.495542 11.335438
343 115 1 -0.8476 -4.363459 0.616256 -9.201309
344 115 2 0.4238 -4.518069 1.510681 -8.781667
345 115 2 0.4238 -3.530543 0.646823 -9.753864
346 116 1 -0.8476 -5.570893 -7.189553 3.252403
347 116 2 0.4238 -4.7558 -6.945312 2.727074
348 116 2 0.4238 -6.210788 -6.421091 3.251312
349 117 1 -0.8476 -11.846956 -12.508477 6.262479
350 117 2 0.4238 -11.283891 -13.316428 6.436184
351 117 2 0.4238 -11.385145 -11.697074 6.620749
352 118 1 -0.8476 -8.255736 8.960302 13.432263
353 118 2 0.4238 -8.518532 9.922752 13.500294
354 118 2 0.4238 -9.06739 8.385151 13.534341
355 119 1 -0.8476 4.797446 4.784014 -13.753253
356 119 2 0.4238 4.723701 4.986989 -12.77685
357 119 2 0.4238 5.581445 5.272062 -14.136862
358 120 1 -0.8476 -2.00512 -10.515327 -8.69143
359 120 2 0.4238 -1.292771 -11.003238 -9.195912
360 120 2 0.4238 -1.665942 -9.613386 -8.424111
361 121 1 -0.8476 10.680618 2.672428 -13.074884
362 121 2 0.4238 9.860161 2.100723 -13.077063
363 121 2 0.4238 10.420719 3.628928 -13.207404
364 122 1 -0.8476 14.089433 -8.616569 -10.331587
365 122 2 0.4238 13.164446 -8.743705 -9.973487
366 122 2 0.4238 14.074441 -8.693753 -11.328491
367 123 1 -0.8476 2.996257 6.705868 4.02832
368 123 2 0.4238 2.741262 6.22631 4.867964
369 123 2 0.4238 3.991363 6.699163 3.929731
370 124 1 -0.8476 5.774332 2.392865 8.38498
371 124 2 0.4238 4.920773 1.878529 8.468029
372 124 2 0.4238 5.568068 3.364411 8.268559
373 125 1 -0.8476 5.73755 -7.392109 -5.523825
374 125 2 0.4238 6.52941 -6.912919 -5.902421
375 125 2 0.4238 6.018588 -7.917666 -4.720826
376 126 1 -0.8476 -10.537669 10.625386 -7.363806
377 126 2 0.4238 -9.662904 10.143046 -7.317593
378 126 2 0.4238 -11.283634 9.960275 -7.397928
379 127 1 -0.8476 -9.631454 -6.217811 -1.132065
380 127 2 0.4238 -9.911822 -5.959518 -2.056554
381 127 2 0.4238 -10.364929 -5.999927 -0.488216
382 128 1 -0.8476 -6.157192 1.806686 -11.07696
383 128 2 0.4238 -6.304675 1.722436 -10.09149
384 128 2 0.4238 -5.60244 1.039016 -11.397793
385 129 1 -0.8476 -15.125127 7.634483 -12.710644
386 129 2 0.4238 -15.258135 7.769711 -11.728798
387 129 2 0.4238 -15.641132 6.831706 -13.009455
388 130 1 -0.8476 6.082258 -4.927606 5.952272
389 130 2 0.4238 6.961259 -4.490814 5.761038
390 130 2 0.4238 5.3611 -4.234912 5.962609
391 131 1 -0.8476 8.183056 4.699762 -8.39771
392 131 2 0.4238 7.406364 4.233626 -7.974075
393 131 2 0.4238 8.630037 4.082027 -9.044713
394 132 1 -0.8476 4.325373 -12.687133 13.452389
395 132 2 0.4238 4.391858 -12.411667 14.411398
396 132 2 0.4238 3.362799 -12.785195 13.19973
397 133 1 -0.8476 -9.754227 15.565179 -1.98906
398 133 2 0.4238 -8.997802 14.913349 -1.934843
399 133 2 0.4238 -10.586325 15.087468 -2.27085
400 134 1 -0.8476 10.539403 -15.453411 -12.161777
401 134 2 0.4238 10.403302 -14.53666 -12.537335
402 134 2 0.4238 9.672946 -15.797392 -11.799936
403 135 1 -0.8476 4.507789 15.109429 3.884811
404 135 2 0.4238 3.555309 15.191223 4.178223
405 135 2 0.4238 4.699605 15.793291 3.180865
406 136 1 -0.8476 -2.122806 12.659993 -14.707725
407 136 2 0.4238 -2.255706 11.67025 -14.760132
408 136 2 0.4238 -2.922237 13.081434 -14.279591
409 137 1 -0.8476 -14.175679 -12.207953 -2.207153
410 137 2 0.4238 -14.778834 -11.502007 -1.835878
411 137 2 0.4238 -14.718785 -13.00461 -2.472433
412 138 1 -0.8476 -1.779391 -8.305236 -13.326427
413 138 2 0.4238 -2.730448 -8.046749 -13.157084
414 138 2 0.4238 -1.753357 -9.167007 -13.833058
415 139 1 -0.8476 2.600601 11.345252 11.752476
416 139 2 0.4238 2.429198 12.297126 12.006557
417 139 2 0.4238 3.381862 11.301986 11.129774
418 140 1 -0.8476 0.104269 5.856648 -11.966492
419 140 2 0.4238 0.226958 5.978978 -12.951369
420 140 2 0.4238 0.900399 6.22132 -11.483591
421 141 1 -0.8476 -4.198162 10.686747 -14.444753
422 141 2 0.4238 -5.064418 10.541603 -14.922806
423 141 2 0.4238 -3.733556 9.809624 -14.32311
424 142 1 -0.8476 -11.897873 -12.714879 -2.095416
425 142 2 0.4238 -11.582378 -11.783714 -2.278163
426 142 2 0.4238 -11.548234 -13.329984 -2.802097
427 143 1 -0.8476 7.827368 -8.701461 -7.981497
428 143 2 0.4238 6.846196 -8.811273 -7.822613
429 143 2 0.4238 7.972593 -8.096388 -8.76431
430 144 1 -0.8476 -6.929317 12.086526 11.80517
431 144 2 0.4238 -7.296331 11.27446 12.258877
432 144 2 0.4238 -7.676551 12.596855 11.379487
433 145 1 -0.8476 -15.10032 -4.275786 14.48735
434 145 2 0.4238 -15.534195 -3.377133 14.551971
435 145 2 0.4238 -15.799211 -4.988459 14.547752
436 146 1 -0.8476 5.522377 -12.376118 9.504159
437 146 2 0.4238 4.921601 -13.06945 9.106216
438 146 2 0.4238 5.629029 -12.549712 10.483184
439 147 1 -0.8476 1.574703 11.674937 -15.736716
440 147 2 0.4238 2.47318 11.237363 -15.772339
441 147 2 0.4238 1.683902 12.666532 -15.806117
442 148 1 -0.8476 -15.031867 14.974186 -0.620746
443 148 2 0.4238 -15.800083 15.227509 -1.208684
444 148 2 0.4238 -14.622388 15.800027 -0.23304
445 149 1 -0.8476 8.895027 1.707693 7.391233
446 149 2 0.4238 9.391444 2.478047 6.991079
447 149 2 0.4238 9.507943 0.921603 7.471218
448 150 1 -0.8476 -7.212443 6.084844 -6.319758
449 150 2 0.4238 -6.838797 5.191985 -6.571137
450 150 2 0.4238 -7.250983 6.161518 -5.323447
451 151 1 -0.8476 1.266149 15.230218 -15.497445
452 151 2 0.4238 2.080813 15.790193 -15.648278
453 151 2 0.4238 0.534728 15.799999 -15.122782
454 152 1 -0.8476 -14.965953 -3.631364 -15.081562
455 152 2 0.4238 -14.543006 -4.527774 -15.214092
456 152 2 0.4238 -15.800043 -3.571995 -15.629988
457 153 1 -0.8476 12.827872 -0.811266 -7.119962
458 153 2 0.4238 13.204774 0.065647 -7.418238
459 153 2 0.4238 12.158222 -1.131473 -7.790064
460 154 1 -0.8476 5.052455 -10.076195 -12.909494
461 154 2 0.4238 4.061708 -10.048032 -13.042263
462 154 2 0.4238 5.501893 -10.24022 -13.787618
463 155 1 -0.8476 8.863543 -11.175752 -3.359274
464 155 2 0.4238 9.162852 -11.773993 -4.102592
465 155 2 0.4238 8.138387 -11.627316 -2.839429
466 156 1 -0.8476 2.520607 11.686132 1.782269
467 156 2 0.4238 3.258547 11.878826 2.429041
468 156 2 0.4238 2.773543 10.905349 1.210953
469 157 1 -0.8476 -3.571028 1.396758 -14.686113
470 157 2 0.4238 -4.113722 2.102057 -14.230002
471 157 2 0.4238 -3.229473 0.747512 -14.00654
472 158 1 -0.8476 4.196773 -9.361415 15.08336
473 158 2 0.4238 4.387987 -8.967616 14.184272
474 158 2 0.4238 4.53705 -10.301214 15.11482
475 159 1 -0.8476 -6.593001 12.90783 14.148369
476 159 2 0.4238 -5.720712 13.275557 14.470686
477 159 2 0.4238 -7.344444 13.426776 14.555835
478 160 1 -0.8476 -15.176706 -1.910542 3.641074
479 160 2 0.4238 -15.58168 -2.589948 4.25296
480 160 2 0.4238 -15.799999 -1.734651 2.879123
481 161 1 -0.8476 -14.882192 -6.838153 2.992759
482 161 2 0.4238 -14.445398 -7.672191 2.655725
483 161 2 0.4238 -14.811401 -6.121195 2.299246
484 162 1 -0.8476 9.942431 -11.332725 7.807239
485 162 2 0.4238 9.352154 -10.765634 7.232799
486 162 2 0.4238 9.943056 -10.974208 8.740762
487 163 1 -0.8476 8.600898 -15.228988 12.074128
488 163 2 0.4238 9.078836 -15.777024 12.760592
489 163 2 0.4238 7.931597 -15.799975 11.598723
490 164 1 -0.8476 0.607547 -9.775622 -9.733196
491 164 2 0.4238 -0.197678 -9.343866 -10.139644
492 164 2 0.4238 0.69765 -10.708321 -10.082418
493 165 1 -0.8476 4.891161 12.020799 -5.476533
494 165 2 0.4238 3.998466 11.606077 -5.300175
495 165 2 0.4238 5.598252 11.314217 -5.448919
496 166 1 -0.8476 9.204257 -1.972905 11.487324
497 166 2 0.4238 8.825636 -1.055203 11.607616
498 166 2 0.4238 10.148748 -1.989444 11.815444
499 167 1 -0.8476 4.324779 -8.238221 7.200593
500 167 2 0.4238 4.31 -7.238387 7.211233
501 167 2 0.4238 5.268995 -8.558449 7.277481
502 168 1 -0.8476 5.638915 -2.800984 -2.482899
503 168 2 0.4238 5.460202 -3.581955 -1.884445
504 168 2 0.4238 4.773382 -2.4497 -2.839904
505 169 1 -0.8476 1.375198 9.003736 -10.971065
506 169 2 0.4238 1.152529 8.678369 -11.890063
507 169 2 0.4238 0.531117 9.144019 -10.453525
508 170 1 -0.8476 -3.241299 -0.431017 1.761373
509 170 2 0.4238 -3.716779 0.448016 1.726432
510 170 2 0.4238 -2.312097 -0.321612 1.408367
511 171 1 -0.8476 -10.443223 -12.113858 14.272802
512 171 2 0.4238 -10.361739 -11.924244 13.29433
513 171 2 0.4238 -11.404393 -12.06099 14.543648
514 172 1 -0.8476 -14.396736 -0.907919 -0.203904
515 172 2 0.4238 -13.844619 -0.181992 0.206214
516 172 2 0.4238 -15.269729 -0.975955 0.279061
517 173 1 -0.8476 -0.106009 -10.424841 -6.09589
518 173 2 0.4238 -0.466572 -11.091313 -6.748431
519 173 2 0.4238 0.028834 -9.547246 -6.555938
520 174 1 -0.8476 -6.083784 4.520405 -15.061
521 174 2 0.4238 -7.037596 4.506161 -14.760932
522 174 2 0.4238 -5.501098 4.819705 -14.305423
523 175 1 -0.8476 -7.349215 11.316081 -2.805714
524 175 2 0.4238 -7.289778 10.432958 -2.340353
525 175 2 0.4238 -6.546061 11.867029 -2.578994
526 176 1 -0.8476 0.562842 -2.301284 8.593815
527 176 2 0.4238 0.043125 -1.47189 8.798756
528 176 2 0.4238 0.102388 -2.812342 7.868004
529 177 1 -0.8476 15.729617 15.402107 0.162797
530 177 2 0.4238 15.339249 15.800316 -0.667288
531 177 2 0.4238 15.800213 14.4104 0.055394
532 178 1 -0.8476 8.618121 -0.463674 -14.962274
533 178 2 0.4238 9.220341 -0.060568 -14.273189
534 178 2 0.4238 9.137023 -0.63363 -15.800042
535 179 1 -0.8476 3.592647 -8.821689 2.596287
536 179 2 0.4238 2.762495 -9.206272 2.999951
537 179 2 0.4238 4.346314 -9.470295 2.702575
538 180 1 -0.8476 1.351904 4.092187 -4.831353
539 180 2 0.4238 1.723591 4.793982 -5.43908
540 180 2 0.4238 0.564589 4.461655 -4.337764
541 181 1 -0.8476 -15.140055 6.930469 -5.12622
542 181 2 0.4238 -15.482524 7.275421 -4.252308
543 181 2 0.4238 -15.393426 5.968379 -5.227154
544 182 1 -0.8476 15.037838 -9.423449 -1.785106
545 182 2 0.4238 15.060582 -10.423184 -1.788639
546 182 2 0.4238 14.087904 -9.111736 -1.763642
547 183 1 -0.8476 15.042263 8.209365 -4.467531
548 183 2 0.4238 15.574977 8.085636 -3.630329
549 183 2 0.4238 15.641669 8.534365 -5.199028
550 184 1 -0.8476 10.565263 -4.604607 -7.504136
551 184 2 0.4238 10.63008 -5.443815 -6.964202
552 184 2 0.4238 10.556291 -4.834285 -8.477361
553 185 1 -0.8476 -2.67819 -14.100038 14.381915
554 185 2 0.4238 -3.273452 -14.104224 13.578394
555 185 2 0.4238 -1.740889 -13.893366 14.101283
556 186 1 -0.8476 5.028458 -1.162356 8.400127
557 186 2 0.4238 4.671846 -0.737181 7.568229
558 186 2 0.4238 4.420378 -0.95627 9.166787
559 187 1 -0.8476 2.654991 4.274151 11.871661
560 187 2 0.4238 2.890081 4.567809 10.945109
561 187 2 0.4238 1.663162 4.314746 11.992608
562 188 1 -0.8476 10.728707 -3.446758 10.114535
563 188 2 0.4238 10.09483 -2.822854 9.657431
564 188 2 0.4238 11.146071 -4.05296 9.437537
565 189 1 -0.8476 -12.094022 8.272481 11.451449
566 189 2 0.4238 -12.514804 7.366488 11.405399
567 189 2 0.4238 -11.117571 8.177037 11.644926
568 190 1 -0.8476 4.840218 1.360956 5.671285
569 190 2 0.4238 4.23979 1.128077 6.436304
570 190 2 0.4238 5.794218 1.286896 5.9618
571 191 1 -0.8476 -11.361161 13.509564 3.830936
572 191 2 0.4238 -10.769778 12.705675 3.767456
573 191 2 0.4238 -10.799385 14.327845 3.952691
574 192 1 -0.8476 -9.014825 2.408696 2.632902
575 192 2 0.4238 -8.52682 3.280973 2.601527
576 192 2 0.4238 -8.354637 1.657717 2.646408
577 193 1 -0.8476 -9.117835 -7.375273 14.252203
578 193 2 0.4238 -9.302138 -6.9585 13.362072
579 193 2 0.4238 -9.238422 -6.691436 14.971805
580 194 1 -0.8476 -5.097445 10.247883 -2.20915
581 194 2 0.4238 -4.418435 10.023026 -2.907996
582 194 2 0.4238 -5.376658 9.412967 -1.734855
583 195 1 -0.8476 -0.735768 2.984728 -14.098199
584 195 2 0.4238 -1.096537 3.507343 -14.870675
585 195 2 0.4238 -0.102036 3.555753 -13.576361
586 196 1 -0.8476 -12.412967 13.229578 -12.217339
587 196 2 0.4238 -11.492981 13.111667 -11.843544
588 196 2 0.4238 -12.771519 12.341997 -12.506545
589 197 1 -0.8476 0.460851 -12.074889 6.791066
590 197 2 0.4238 0.251447 -12.916633 6.293455
591 197 2 0.4238 1.26904 -11.64317 6.390505
592 198 1 -0.8476 12.763096 -13.053456 0.247562
593 198 2 0.4238 13.285925 -12.30795 -0.165803
594 198 2 0.4238 13.088474 -13.928052 -0.111899
595 199 1 -0.8476 -14.840236 -1.162344 10.738302
596 199 2 0.4238 -15.418815 -0.574755 11.303976
597 199 2 0.4238 -14.006207 -1.391512 11.240177
598 200 1 -0.8476 -2.984147 -6.460974 14.89466
599 200 2 0.4238 -2.803599 -7.02719 15.6989
600 200 2 0.4238 -3.787118 -6.812257 14.413164
601 201 1 -0.8476 13.087926 -5.81231 1.321921
602 201 2 0.4238 12.311978 -5.330286 1.728808
603 201 2 0.4238 13.42297 -5.298038 0.532446
604 202 1 -0.8476 -9.242556 -13.796505 -12.831869
605 202 2 0.4238 -9.132309 -14.669843 -12.357393
606 202 2 0.4238 -9.501331 -13.089781 -12.173404
607 203 1 -0.8476 0.269606 10.482262 12.844846
608 203 2 0.4238 0.993107 9.858245 13.140058
609 203 2 0.4238 -0.575063 9.967543 12.697878
610 204 1 -0.8476 9.423209 -2.959535 -14.290799
611 204 2 0.4238 9.645207 -2.427425 -13.473746
612 204 2 0.4238 8.633789 -3.544127 -14.103534
613 205 1 -0.8476 -2.724905 7.551523 -14.783958
614 205 2 0.4238 -2.567751 6.721342 -14.249073
615 205 2 0.4238 -2.444159 7.395952 -15.731048
616 206 1 -0.8476 -12.308187 -7.785333 -12.328304
617 206 2 0.4238 -12.715698 -6.979306 -11.899054
618 206 2 0.4238 -11.323841 -7.644651 -12.434473
619 207 1 -0.8476 -14.896259 -14.130949 5.428695
620 207 2 0.4238 -14.19624 -13.435758 5.592047
621 207 2 0.4238 -15.799487 -13.701806 5.432541
622 208 1 -0.8476 -4.767673 -3.623709 -12.941784
623 208 2 0.4238 -4.628385 -4.346527 -12.264928
624 208 2 0.4238 -3.941164 -3.521716 -13.495391
625 209 1 -0.8476 5.429816 7.681738 -5.84232
626 209 2 0.4238 5.645736 7.29442 -6.738625
627 209 2 0.4238 4.92193 8.534884 -5.961465
628 210 1 -0.8476 -15.617312 2.360227 -10.936357
629 210 2 0.4238 -14.630803 2.209829 -11.001019
630 210 2 0.4238 -15.79919 3.10979 -10.299902
631 211 1 -0.8476 5.561236 -7.032756 12.840925
632 211 2 0.4238 4.564942 -6.984496 12.912121
633 211 2 0.4238 5.815762 -7.324718 11.918984
634 212 1 -0.8476 -15.148618 -9.461096 4.967012
635 212 2 0.4238 -15.8 -9.908191 5.580044
636 212 2 0.4238 -15.636874 -8.828364 4.365965
637 213 1 -0.8476 -5.273099 15.391862 10.921459
638 213 2 0.4238 -4.559294 15.746576 10.317587
639 213 2 0.4238 -5.031273 15.584554 11.872453
640 214 1 -0.8476 -3.261286 14.155441 -9.517362
641 214 2 0.4238 -3.998549 14.818 -9.385233
642 214 2 0.4238 -2.430803 14.633513 -9.803275
643 215 1 -0.8476 0.234734 -1.829685 -7.948255
644 215 2 0.4238 0.628053 -1.906997 -8.864401
645 215 2 0.4238 -0.267026 -2.666505 -7.729234