ITEM: TIMESTEP
0
ITEM: NUMBER OF ATOMS
3036
ITEM: BOX BOUNDS pp pp pp
-1.5800000000000001e+01 1.5800000000000001e+01
-1.5800000000000001e+01 1.5800000000000001e+01
-1.5800000000000001e+01 1.5800000000000001e+01
ITEM: ATOMS id type xs ys zs
1 1 0.140741 0.96806 0.515863
2 2 0.150609 0.949618 0.492115
3 2 0.144512 0.99845 0.507885
4 1 0.289076 0.0673361 0.939694
5 2 0.278814 0.0460131 0.960704
6 2 0.264481 0.0787471 0.923374
7 1 0.731742 0.371508 0.323071
8 2 0.728349 0.343202 0.336807
9 2 0.762311 0.379692 0.323186
10 1 0.188917 0.999929 0.675006
11 2 0.176702 0.028392 0.668518
12 2 0.220016 0.00272127 0.680154
13 1 0.432062 0.795134 0.559429
14 2 0.401778 0.796731 0.550388
15 2 0.436318 0.769561 0.577577
16 1 0.0103697 0.632908 0.607884
17 2 6.60759e-05 0.661126 0.617835
18 2 0.0407291 0.635207 0.599255
19 1 0.464463 0.0885558 0.345092
20 2 0.433009 0.0878142 0.341696
21 2 0.474045 0.118567 0.348082
22 1 0.132197 0.430109 0.312568
23 2 0.159087 0.417357 0.301807
24 2 0.122598 0.41435 0.338277
25 1 0.488231 0.359193 0.29642
26 2 0.466917 0.338608 0.307528
27 2 0.51257 0.343393 0.283793
28 1 0.382392 0.902886 0.297774
29 2 0.400526 0.877 0.296194
30 2 0.354061 0.896707 0.2851
31 1 0.0223552 0.568067 0.900918
32 2 0.050235 0.583002 0.901982
33 2 0.000954082 0.586671 0.886869
34 1 0.738006 0.231441 0.0969716
35 2 0.758943 0.213122 0.112055
36 2 0.729897 0.217836 0.0695746
37 1 0.5637 0.848321 0.0951108
38 2 0.581537 0.823218 0.1024
39 2 0.533168 0.840005 0.0953893
40 1 0.331773 0.676992 0.463615
41 2 0.345274 0.663719 0.488973
42 2 0.302978 0.687605 0.471338
43 1 0.319606 0.918912 0.66769
44 2 0.316808 0.91846 0.636172
45 2 0.349329 0.926424 0.675534
46 1 0.92025 0.000684272 0.795921
47 2 0.951379 8.67089e-06 0.801573
48 2 0.909365 0.0300711 0.800324
49 1 0.485694 0.45352 0.933091
50 2 0.459331 0.468236 0.923612
51 2 0.478018 0.426637 0.947918
52 1 0.826466 0.797738 0.947539
53 2 0.814595 0.768747 0.952015
54 2 0.854196 0.80022 0.962584
55 1 0.0264916 0.342618 0.631959
56 2 0.0510955 0.340103 0.651701
57 2 0.999999 0.347195 0.648651
58 1 0.202256 0.937161 0.125177
59 2 0.202389 0.966808 0.136243
60 2 0.22561 0.920714 0.138798
61 1 0.296228 0.288331 0.724194
62 2 0.32581 0.278427 0.729507
63 2 0.291286 0.290545 0.693015
64 1 0.377455 0.773599 0.806302
65 2 0.387556 0.80091 0.793913
66 2 0.380883 0.750447 0.785003
67 1 0.537901 0.0842205 0.146209
68 2 0.563726 0.102494 0.146972
69 2 0.518948 0.0917299 0.170412
70 1 0.0985963 0.311755 0.408408
71 2 0.127066 0.307969 0.395118
72 2 0.096558 0.293685 0.434307
73 1 0.722796 0.360215 0.88642
74 2 0.722412 0.328574 0.886089
75 2 0.750534 0.370309 0.897829
76 1 0.732286 0.623179 0.697002
77 2 0.730708 0.592779 0.705652
78 2 0.759665 0.635562 0.706926
79 1 0.185257 0.0241655 0.763733
80 2 0.209311 0.00828975 0.750663
81 2 0.192509 0.0549316 0.765248
82 1 0.672231 0.353968 0.267563
83 2 0.697688 0.37201 0.262283
84 2 0.675502 0.326404 0.252365
85 1 0.117281 0.91985 0.293083
86 2 0.128507 0.936269 0.317697
87 2 0.107474 0.93988 0.270632
88 1 0.235897 0.59669 0.37306
89 2 0.25116 0.57528 0.35545
90 2 0.2383 0.625169 0.359473
91 1 0.31414 0.118992 0.443203
92 2 0.335175 0.120381 0.419602
93 2 0.297189 0.145708 0.44381
94 1 0.342075 0.061494 0.506211
95 2 0.372831 0.068924 0.505671
96 2 0.338821 0.0300177 0.505903
97 1 0.478888 0.690641 0.195255
98 2 0.45551 0.670294 0.18886
99 2 0.506045 0.674762 0.198694
100 1 0.814138 0.836228 0.623201
101 2 0.791934 0.84827 0.642264
102 2 0.833748 0.817985 0.640055
103 1 0.94745 0.995062 0.555687
104 2 0.954205 0.964182 0.554188
105 2 0.917514 0.999765 0.54657
106 1 0.107163 0.0948419 0.0160928
107 2 0.082041 0.084902 0.999615
108 2 0.106035 0.126326 0.019077
109 1 0.733799 0.483009 0.812093
110 2 0.715055 0.507739 0.805885
111 2 0.7192 0.463521 0.832305
112 1 0.552845 0.0656366 0.239451
113 2 0.521538 0.0688627 0.236155
114 2 0.559773 0.0605086 0.269901
115 1 0.246219 0.248685 0.383834
116 2 0.22492 0.271316 0.389802
117 2 0.274064 0.26199 0.376829
118 1 0.433154 0.0580171 0.547261
119 2 0.444192 0.0647964 0.518388
120 2 0.457254 0.0500822 0.566172
121 1 0.172123 0.221663 0.578305
122 2 0.179735 0.190947 0.578053
123 2 0.198531 0.239082 0.577525
124 1 0.196245 0.903996 0.915956
125 2 0.201929 0.904005 0.947087
126 2 0.203475 0.875635 0.903921
127 1 0.11382 0.115587 0.347117
128 2 0.144507 0.122962 0.344805
129 2 0.110364 0.0841759 0.345425
130 1 0.0950033 0.872723 0.595753
131 2 0.0878099 0.870422 0.626484
132 2 0.0727453 0.858178 0.578592
133 1 0.399028 0.420445 0.853548
134 2 0.429324 0.414338 0.860357
135 2 0.394012 0.451663 0.854843
136 1 0.516403 0.0302696 0.887199
137 2 0.521035 4.33544e-06 0.879199
138 2 0.485762 0.0374725 0.88393
139 1 0.305015 0.884993 0.208062
140 2 0.324552 0.874939 0.185288
141 2 0.300306 0.916129 0.204934
142 1 0.624236 0.675522 0.426333
143 2 0.639155 0.679327 0.398686
144 2 0.636968 0.651098 0.441916
145 1 0.734516 0.286174 0.434843
146 2 0.764416 0.286193 0.445208
147 2 0.734217 0.290506 0.403496
148 1 0.709567 0.825662 0.129027
149 2 0.686295 0.813428 0.146639
150 2 0.70721 0.857219 0.128879
151 1 0.779003 0.166812 0.217604
152 2 0.765664 0.148867 0.239998
153 2 0.756728 0.176906 0.19752
154 1 0.637145 0.150921 0.718452
155 2 0.628286 0.120541 0.718472
156 2 0.611455 0.1694 0.718525
157 1 0.255467 0.976976 0.764334
158 2 0.282903 0.988243 0.77537
159 2 0.240314 0.999783 0.748471
160 1 0.5031 0.56366 0.797975
161 2 0.495756 0.533089 0.801569
162 2 0.49364 0.573495 0.769423
163 1 0.487026 0.884926 0.775626
164 2 0.504066 0.9096 0.785741
165 2 0.458178 0.886007 0.788589
166 1 0.590276 0.737239 0.245634
167 2 0.599605 0.719917 0.220848
168 2 0.57027 0.759725 0.235857
169 1 0.906656 0.8694 0.475531
170 2 0.89985 0.898597 0.4654
171 2 0.936448 0.862185 0.467672
172 1 0.662069 0.474857 0.358511
173 2 0.668214 0.47006 0.32784
174 2 0.6886 0.470974 0.375317
175 1 0.465587 0.0187371 0.151373
176 2 0.468424 0.0486982 0.141589
177 2 0.483574 0.999992 0.133303
178 1 0.182579 0.0877462 0.206058
179 2 0.206628 0.0772835 0.223767
180 2 0.172962 0.0646812 0.186643
181 1 0.706706 0.0640386 0.909184
182 2 0.736502 0.0677668 0.919173
183 2 0.706704 0.0574591 0.87823
184 1 0.327081 0.602659 0.565374
185 2 0.356147 0.615174 0.565317
186 2 0.329186 0.571095 0.564506
187 1 0.50668 0.26452 0.834622
188 2 0.506506 0.294139 0.845762
189 2 0.536228 0.256396 0.826722
190 1 0.375901 0.849924 0.117939
191 2 0.386482 0.820141 0.116377
192 2 0.344747 0.849772 0.123497
193 1 0.154591 0.634757 0.800753
194 2 0.137938 0.607881 0.802078
195 2 0.185512 0.628043 0.801251
196 1 0.851144 0.0739695 0.669127
197 2 0.83742 0.0497395 0.68416
198 2 0.879733 0.0792954 0.681607
199 1 0.441742 0.273169 0.798257
200 2 0.425594 0.246519 0.803778
201 2 0.439131 0.292446 0.823217
202 1 0.620806 0.123063 0.372772
203 2 0.646763 0.128516 0.390034
204 2 0.619798 0.0925062 0.364603
205 1 0.634814 0.745279 0.86171
206 2 0.649628 0.717316 0.861449
207 2 0.656207 0.768532 0.863476
208 1 0.184573 0.462623 0.382275
209 2 0.164247 0.439271 0.388828
210 2 0.2116 0.457809 0.398017
211 1 0.0986821 0.201693 0.614266
212 2 0.0692735 0.191868 0.607938
213 2 0.0987544 0.233134 0.617863
214 1 0.156758 0.745102 0.17915
215 2 0.172052 0.717727 0.174887
216 2 0.173405 0.768631 0.166086
217 1 0.472289 0.911839 0.319163
218 2 0.487837 0.914026 0.346639
219 2 0.444095 0.92596 0.321845
220 1 0.192727 0.501963 0.239093
221 2 0.202155 0.474602 0.251896
222 2 0.217307 0.521819 0.237356
223 1 0.5479 0.203303 0.457669
224 2 0.571264 0.223007 0.465873
225 2 0.553176 0.174811 0.47039
226 1 0.0234238 0.282313 0.922925
227 2 0.0512921 0.26771 0.919523
228 2 0.999999 0.261553 0.918258
229 1 0.976678 0.490755 0.731409
230 2 0.995915 0.497806 0.707291
231 2 0.990273 0.468771 0.749666
232 1 0.403163 0.68309 0.5239
233 2 0.422305 0.658035 0.526596
234 2 0.417604 0.708704 0.535597
235 1 0.182341 0.60061 0.417399
236 2 0.157845 0.588562 0.401392
237 2 0.186294 0.630961 0.409358
238 1 0.354684 0.162456 0.264866
239 2 0.37679 0.184768 0.261009
240 2 0.333947 0.171841 0.286852
241 1 0.649816 0.627682 0.334518
242 2 0.641879 0.597154 0.331968
243 2 0.678235 0.630083 0.34823
244 1 0.420663 0.161967 0.337574
245 2 0.421928 0.176034 0.365893
246 2 0.391069 0.163304 0.326445
247 1 0.275439 0.990396 0.140531
248 2 0.259891 0.999563 0.114537
249 2 0.283199 0.959825 0.137948
250 1 0.0189322 0.245642 0.810117
251 2 4.51582e-05 0.270933 0.812366
252 2 0.00140775 0.219827 0.80483
253 1 0.000461551 0.604682 0.516897
254 2 0.0245431 0.615084 0.534597
255 2 7.13291e-05 0.573039 0.517166
256 1 0.726141 0.302262 0.0818475
257 2 0.709997 0.284318 0.0613812
258 2 0.707357 0.310139 0.106067
259 1 0.816405 0.593088 0.42375
260 2 0.832959 0.620001 0.425509
261 2 0.836314 0.568522 0.422497
262 1 0.267366 0.110624 0.276281
263 2 0.272757 0.138752 0.289741
264 2 0.277961 0.110995 0.246464
265 1 0.450638 0.80973 0.349273
266 2 0.426148 0.829596 0.346615
267 2 0.474199 0.82405 0.364805
268 1 0.410304 0.82406 0.730984
269 2 0.441913 0.825522 0.730532
270 2 0.400937 0.795343 0.721551
271 1 0.192799 0.808084 1
272 2 0.183342 0.838283 4.94937e-05
273 2 0.167479 0.789101 7.96519e-05
274 1 0.0837013 0.976665 0.795168
275 2 0.0753726 0.953193 0.814691
276 2 0.0581161 0.993695 0.787632
277 1 0.383538 0.309091 0.753513
278 2 0.368137 0.336656 0.751417
279 2 0.414462 0.313903 0.748826
280 1 0.539871 0.891445 0.184707
281 2 0.511345 0.887744 0.197899
282 2 0.55369 0.863175 0.181354
283 1 0.377844 0.451968 0.214907
284 2 0.401983 0.455696 0.235028
285 2 0.350862 0.449182 0.231206
286 1 5.17089e-05 0.921704 0.633877
287 2 0.985203 0.926632 0.661384
288 2 0.990466 0.894205 0.621494
289 1 0.616756 0.780195 0.601297
290 2 0.60613 0.809911 0.598956
291 2 0.648318 0.780428 0.603586
292 1 0.0313068 0.861682 0.907178
293 2 0.0154897 0.886025 0.919774
294 2 0.0620095 0.864166 0.914432
295 1 0.231624 0.0709445 0.67292
296 2 0.231438 0.0669731 0.704315
297 2 0.22822 0.10167 0.666154
298 1 0.13141 0.111924 0.105108
299 2 0.119768 0.134925 0.086754
300 2 0.131088 0.0845631 0.0892106
301 1 0.409765 0.336867 0.904274
302 2 0.424246 0.337616 0.876146
303 2 0.396311 0.364941 0.909961
304 1 0.0935288 0.972856 0.392913
305 2 0.0800458 0.944376 0.38999
306 2 0.0710421 0.995079 0.39431
307 1 0.348594 0.97068 0.760341
308 2 0.360508 0.999811 0.757045
309 2 0.372263 0.94982 0.762811
310 1 0.72415 0.186094 0.333022
311 2 0.745749 0.207564 0.341621
312 2 0.73478 0.157094 0.339912
313 1 0.853675 0.812702 0.0267332
314 2 0.877803 0.816542 0.0468457
315 2 0.859612 0.828544 0.99999
316 1 0.512117 0.0580159 0.992747
317 2 0.509943 0.0272897 6.32911e-07
318 2 0.536745 0.0625708 0.973404
319 1 0.656229 0.265583 0.128611
320 2 0.635868 0.266458 0.104402
321 2 0.675069 0.240331 0.125641
322 1 0.11477 0.917767 0.924168
323 2 0.115232 0.940777 0.902448
324 2 0.135564 0.924457 0.947066
325 1 0.771671 0.588883 0.023055
326 2 0.776068 0.616531 0.03781
327 2 0.750303 0.592514 0.999997
328 1 0.604463 0.860646 0.673387
329 2 0.589205 0.870035 0.647301
330 2 0.584277 0.84563 0.692584
331 1 0.949934 0.699302 0.203168
332 2 0.980134 0.692916 0.210144
333 2 0.938102 0.676052 0.185255
334 1 0.134812 0.883759 0.703737
335 2 0.142997 0.889084 0.733838
336 2 0.127476 0.853197 0.700049
337 1 0.262319 0.166505 0.561619
338 2 0.286892 0.146961 0.557667
339 2 0.272906 0.195419 0.568922
340 1 0.788187 0.299579 0.842387
341 2 0.811448 0.278782 0.847662
342 2 0.793837 0.32609 0.858716
343 1 0.361916 0.519502 0.208819
344 2 0.357023 0.547806 0.222099
345 2 0.388274 0.520469 0.191333
346 1 0.323706 0.272482 0.602924
347 2 0.3495 0.280212 0.5863
348 2 0.303456 0.296801 0.60289
349 1 0.125096 0.104162 0.69818
350 2 0.142915 0.0785941 0.703677
351 2 0.139711 0.129839 0.709517
352 1 0.238743 0.783554 0.925072
353 2 0.230426 0.814011 0.927224
354 2 0.213057 0.765353 0.928302
355 1 0.651818 0.651393 0.0647705
356 2 0.649484 0.657816 0.0956693
357 2 0.676628 0.666837 0.0526309
358 1 0.436547 0.167236 0.224955
359 2 0.45909 0.151796 0.20899
360 2 0.44728 0.195779 0.233414
361 1 0.837994 0.584571 0.0862378
362 2 0.81203 0.566479 0.0861689
363 2 0.82977 0.614839 0.0820442
364 1 0.945868 0.227324 0.173051
365 2 0.916596 0.2233 0.184383
366 2 0.945394 0.224881 0.141503
367 1 0.594818 0.712211 0.627478
368 2 0.586749 0.697035 0.654049
369 2 0.626309 0.711999 0.624359
370 1 0.682732 0.575724 0.765347
371 2 0.655721 0.559447 0.767976
372 2 0.676205 0.606469 0.761663
373 1 0.681568 0.266072 0.325195
374 2 0.706627 0.281237 0.313215
375 2 0.690462 0.249441 0.350607
376 1 0.166529 0.836246 0.266968
377 2 0.194212 0.820982 0.268431
378 2 0.142923 0.815199 0.265888
379 1 0.195207 0.303234 0.464175
380 2 0.186335 0.311408 0.434919
381 2 0.171996 0.310129 0.48455
382 1 0.305152 0.557174 0.149463
383 2 0.300485 0.554507 0.180649
384 2 0.322708 0.53288 0.13931
385 1 0.0213567 0.741598 0.0977644
386 2 0.0171476 0.745877 0.128836
387 2 0.00502747 0.716193 0.0883084
388 1 0.692477 0.344063 0.688363
389 2 0.720293 0.357886 0.682311
390 2 0.669655 0.365984 0.68869
391 1 0.758957 0.648727 0.23425
392 2 0.734379 0.633976 0.247656
393 2 0.773102 0.629178 0.213775
394 1 0.636879 0.0985084 0.925709
395 2 0.638983 0.107226 0.956057
396 2 0.606418 0.0954052 0.917713
397 1 0.191322 0.992569 0.437055
398 2 0.215259 0.971941 0.438771
399 2 0.16499 0.977452 0.428138
400 1 0.833525 0.010968 0.115134
401 2 0.829218 0.0399791 0.103249
402 2 0.806106 8.25316e-05 0.126584
403 1 0.642652 0.978146 0.622937
404 2 0.61251 0.980735 0.632222
405 2 0.648722 0.999788 0.60066
406 1 0.432823 0.900633 0.0345657
407 2 0.428617 0.869312 0.0329072
408 2 0.407524 0.913969 0.0481142
409 1 0.0514026 0.113672 0.430153
410 2 0.0323154 0.136012 0.441903
411 2 0.0342157 0.0884617 0.421758
412 1 0.44369 0.237176 0.0782776
413 2 0.413593 0.245356 0.0836366
414 2 0.444514 0.209905 0.062245
415 1 0.582297 0.859027 0.871914
416 2 0.576873 0.88915 0.879954
417 2 0.607021 0.857658 0.852208
418 1 0.5033 0.685337 0.121314
419 2 0.507182 0.689208 0.0901466
420 2 0.528494 0.696877 0.136595
421 1 0.367147 0.838188 0.0428876
422 2 0.339734 0.833595 0.0277593
423 2 0.381849 0.810431 0.046737
424 1 0.123485 0.0976304 0.433689
425 2 0.133469 0.127098 0.427906
426 2 0.13455 0.0781651 0.411326
427 1 0.747702 0.224637 0.247421
428 2 0.716652 0.221162 0.252449
429 2 0.752297 0.243785 0.222648
430 1 0.280718 0.882485 0.873581
431 2 0.269103 0.856787 0.887939
432 2 0.257071 0.898635 0.86011
433 1 0.0221418 0.36469 0.95846
434 2 0.00841155 0.393129 0.960505
435 2 2.49684e-05 0.342137 0.960372
436 1 0.674759 0.108351 0.800765
437 2 0.655747 0.0864098 0.788171
438 2 0.678134 0.102857 0.831746
439 1 0.549832 0.86946 0.00200266
440 2 0.578265 0.855613 0.000875348
441 2 0.553288 0.90084 0.999806
442 1 0.024308 0.973867 0.480356
443 2 0.999997 0.981883 0.461751
444 2 0.0372662 8.5443e-07 0.492625
445 1 0.781488 0.554041 0.7339
446 2 0.797198 0.578419 0.721237
447 2 0.800884 0.529165 0.736431
448 1 0.271758 0.692558 0.300008
449 2 0.283582 0.664303 0.292053
450 2 0.270539 0.694985 0.331536
451 1 0.540068 0.981969 0.00957453
452 2 0.565849 0.99969 0.00480133
453 2 0.516922 1 0.0214309
454 1 0.0263939 0.385083 0.0227354
455 2 0.0397783 0.356716 0.0185414
456 2 0.999999 0.386962 0.00538013
457 1 0.905945 0.474327 0.274685
458 2 0.917873 0.502077 0.265246
459 2 0.884754 0.464194 0.253479
460 1 0.659888 0.181133 0.0914717
461 2 0.628535 0.182024 0.0872702
462 2 0.674111 0.175942 0.063683
463 1 0.780492 0.146337 0.393694
464 2 0.789964 0.127405 0.370171
465 2 0.757544 0.132047 0.410145
466 1 0.579766 0.869814 0.556401
467 2 0.603119 0.875912 0.576868
468 2 0.58777 0.845106 0.538321
469 1 0.386993 0.544201 0.0352496
470 2 0.369819 0.566521 0.0496835
471 2 0.397801 0.523655 0.0567551
472 1 0.632809 0.203753 0.977322
473 2 0.63886 0.216215 0.948869
474 2 0.643578 0.174012 0.978317
475 1 0.291361 0.908476 0.947733
476 2 0.318965 0.920113 0.957933
477 2 0.267581 0.924898 0.960628
478 1 0.0197245 0.43954 0.615224
479 2 0.00690886 0.41804 0.634587
480 2 3.16456e-08 0.445106 0.591111
481 1 0.0290446 0.283603 0.594708
482 2 0.0428672 0.257209 0.584042
483 2 0.0312848 0.306291 0.572761
484 1 0.814634 0.141369 0.747065
485 2 0.795954 0.159315 0.728886
486 2 0.814654 0.152715 0.776606
487 1 0.77218 0.01807 0.882093
488 2 0.787305 0.000727089 0.903816
489 2 0.751 7.91139e-07 0.867048
490 1 0.519226 0.190645 0.191987
491 2 0.493744 0.204308 0.179125
492 2 0.522078 0.161129 0.180936
493 1 0.654784 0.880405 0.326692
494 2 0.626534 0.867281 0.332273
495 2 0.67716 0.858045 0.327566
496 1 0.791274 0.437566 0.863523
497 2 0.779292 0.466607 0.86733
498 2 0.821163 0.437043 0.873906
499 1 0.63686 0.239297 0.727867
500 2 0.636392 0.270937 0.728204
501 2 0.66674 0.229163 0.7303
502 1 0.678447 0.411361 0.421427
503 2 0.672791 0.386647 0.440366
504 2 0.651056 0.422478 0.41013
505 1 0.543519 0.784928 0.152814
506 2 0.536472 0.774632 0.123732
507 2 0.516807 0.789368 0.169192
508 1 0.397427 0.48636 0.55574
509 2 0.38238 0.514178 0.554634
510 2 0.426832 0.489822 0.544569
511 1 0.169518 0.11665 0.951671
512 2 0.172097 0.122651 0.920707
513 2 0.139101 0.118323 0.960242
514 1 0.0444071 0.471268 0.493547
515 2 0.0618791 0.494241 0.506526
516 2 0.0167807 0.469115 0.508831
517 1 0.496645 0.1701 0.307092
518 2 0.485235 0.149009 0.286442
519 2 0.500912 0.197872 0.292534
520 1 0.307475 0.643051 0.0233861
521 2 0.277291 0.6426 0.0328819
522 2 0.325915 0.652522 0.0472967
523 1 0.26743 0.858104 0.411212
524 2 0.269311 0.830157 0.425938
525 2 0.292846 0.875539 0.418386
526 1 0.517811 0.427175 0.771956
527 2 0.501365 0.453421 0.778442
528 2 0.50324 0.411002 0.748987
529 1 0.997773 0.987408 0.505152
530 2 0.985419 1e-05 0.478883
531 2 6.74051e-06 0.956025 0.501753
532 1 0.772725 0.485327 0.0265103
533 2 0.791783 0.498083 0.0483168
534 2 0.789146 0.479948 0.999999
535 1 0.613691 0.220833 0.582161
536 2 0.587421 0.208662 0.594935
537 2 0.637542 0.200307 0.585525
538 1 0.542782 0.6295 0.347109
539 2 0.554544 0.651708 0.327877
540 2 0.517867 0.641192 0.362729
541 1 0.0208843 0.719319 0.337778
542 2 0.0100467 0.730235 0.365433
543 2 0.0128663 0.688873 0.334584
544 1 0.975881 0.20179 0.443509
545 2 0.976601 0.170152 0.443397
546 2 0.94582 0.211654 0.444189
547 1 0.976021 0.75979 0.358622
548 2 0.992879 0.755875 0.385116
549 2 0.99499 0.770075 0.335474
550 1 0.834344 0.354285 0.262527
551 2 0.836395 0.327727 0.279614
552 2 0.83406 0.347016 0.231729
553 1 0.415247 0.0537963 0.955124
554 2 0.39641 0.0536638 0.929696
555 2 0.444909 0.0603365 0.946243
556 1 0.659128 0.463217 0.765827
557 2 0.647843 0.476671 0.739501
558 2 0.639885 0.469738 0.790088
559 1 0.584019 0.635258 0.875685
560 2 0.591458 0.644551 0.846364
561 2 0.552632 0.636543 0.879513
562 1 0.839516 0.390925 0.82008
563 2 0.819457 0.410669 0.805615
564 2 0.852724 0.371742 0.798656
565 1 0.117278 0.761787 0.862388
566 2 0.103962 0.733117 0.86093
567 2 0.148178 0.758767 0.86851
568 1 0.653171 0.543068 0.679471
569 2 0.634171 0.535699 0.703681
570 2 0.683361 0.540725 0.688665
571 1 0.14047 0.927518 0.621232
572 2 0.159184 0.902078 0.619223
573 2 0.158247 0.953413 0.625085
574 1 0.214721 0.576225 0.58332
575 2 0.230164 0.603828 0.582327
576 2 0.235613 0.552459 0.583747
577 1 0.211461 0.266605 0.951019
578 2 0.205629 0.279794 0.92285
579 2 0.207645 0.288246 0.973791
580 1 0.338688 0.8243 0.43009
581 2 0.360176 0.817184 0.407975
582 2 0.329853 0.797879 0.4451
583 1 0.476716 0.594453 0.0538545
584 2 0.465299 0.610992 0.029409
585 2 0.496771 0.612524 0.0703683
586 1 0.107185 0.918658 0.113375
587 2 0.136298 0.914926 0.125204
588 2 0.095838 0.89057 0.104223
589 1 0.514584 0.117883 0.714907
590 2 0.507957 0.0912458 0.69916
591 2 0.540159 0.131545 0.702231
592 1 0.903895 0.0869159 0.507834
593 2 0.920441 0.110508 0.494753
594 2 0.914192 0.0592389 0.496459
595 1 0.0303723 0.463217 0.83982
596 2 0.0120628 0.481812 0.857721
597 2 0.0567656 0.455965 0.855702
598 1 0.405565 0.295539 0.97135
599 2 0.411279 0.277621 0.996801
600 2 0.380154 0.284422 0.956113
601 1 0.914175 0.316066 0.541833
602 2 0.88962 0.33132 0.554709
603 2 0.924778 0.332341 0.51685
604 1 0.207514 0.0634017 0.0939282
605 2 0.211003 0.0357645 0.108943
606 2 0.199325 0.0857664 0.114766
607 1 0.508532 0.831717 0.906482
608 2 0.531427 0.81197 0.915825
609 2 0.481802 0.815429 0.901832
610 1 0.798203 0.406344 0.0477595
611 2 0.805228 0.423183 0.0736156
612 2 0.773221 0.387844 0.0536856
613 1 0.413769 0.738972 0.0321532
614 2 0.418742 0.712701 0.04908
615 2 0.422653 0.734049 0.00218203
616 1 0.1105 0.253629 0.109864
617 2 0.0976045 0.279136 0.123448
618 2 0.141651 0.258081 0.106504
619 1 0.0285994 0.0528181 0.671794
620 2 0.0507519 0.0748178 0.676964
621 2 1.62342e-05 0.0663985 0.671916
622 1 0.349124 0.385326 0.0904499
623 2 0.353532 0.362452 0.111869
624 2 0.37528 0.388553 0.0729307
625 1 0.67183 0.743093 0.315116
626 2 0.678663 0.730836 0.286752
627 2 0.655757 0.770091 0.311346
628 1 0.00578127 0.574691 0.153913
629 2 0.0369999 0.569931 0.151866
630 2 2.56329e-05 0.598411 0.174054
631 1 0.675988 0.277444 0.906358
632 2 0.64446 0.278972 0.908611
633 2 0.684043 0.268205 0.877183
634 1 0.0206134 0.200598 0.657184
635 2 0 0.18645 0.676584
636 2 0.00516222 0.220621 0.638163
637 1 0.33313 0.987084 0.845616
638 2 0.355719 0.998309 0.826506
639 2 0.340782 0.993182 0.875711
640 1 0.396795 0.947957 0.198818
641 2 0.373464 0.968924 0.202999
642 2 0.423076 0.963086 0.18977
643 1 0.507428 0.442099 0.248473
644 2 0.519875 0.439652 0.219481
645 2 0.49155 0.415617 0.255404
646 1 0.151942 0.245075 0.798846
647 2 0.163472 0.215605 0.799096
648 2 0.175488 0.265655 0.803692
649 1 0.391294 0.124861 0.579297
650 2 0.371718 0.103797 0.566086
651 2 0.416229 0.109789 0.591648
652 1 0.0945596 0.229986 0.223578
653 2 0.0740775 0.206803 0.21691
654 2 0.105963 0.2259 0.252813
655 1 0.612622 0.025703 0.0966004
656 2 0.590627 0.0478693 0.0914709
657 2 0.606057 0.000102342 0.079195
658 1 0.783963 0.223425 0.0224866
659 2 0.80041 0.247526 0.0347373
660 2 0.789245 0.197299 0.0395445
661 1 0.303328 0.464452 0.451834
662 2 0.329533 0.470511 0.43516
663 2 0.283272 0.447503 0.434173
664 1 0.531215 0.154812 0.777419
665 2 0.500819 0.162008 0.772344
666 2 0.549538 0.178312 0.766768
667 1 0.725527 0.319633 0.191543
668 2 0.737885 0.336163 0.215532
669 2 0.701503 0.335843 0.178835
670 1 0.621262 0.0297149 0.229687
671 2 0.611999 0.000145158 0.236112
672 2 0.648641 0.035627 0.244414
673 1 0.881825 0.845248 0.124947
674 2 0.853173 0.856318 0.132559
675 2 0.899974 0.869081 0.114747
676 1 0.554354 0.95671 0.476979
677 2 0.549091 0.985952 0.487873
678 2 0.528247 0.939215 0.48069
679 1 0.872482 0.84402 0.410666
680 2 0.895392 0.825246 0.421806
681 2 0.858427 0.830018 0.386011
682 1 0.887654 0.13709 0.330808
683 2 0.888965 0.157156 0.306373
684 2 0.916439 0.125077 0.336147
685 1 0.455746 0.507586 0.995698
686 2 0.486312 0.514586 0.99996
687 2 0.452447 0.476279 0.992462
688 1 0.826938 0.56617 0.34392
689 2 0.852771 0.558571 0.327296
690 2 0.801447 0.553324 0.330258
691 1 0.0587967 0.139776 0.71629
692 2 0.0647304 0.170484 0.711472
693 2 0.0276861 0.134531 0.713826
694 1 0.414213 0.500365 0.346985
695 2 0.413472 0.47775 0.369108
696 2 0.396835 0.491366 0.322116
697 1 0.509265 0.914876 0.646208
698 2 0.517935 0.888098 0.660672
699 2 0.504345 0.909149 0.615477
700 1 0.471606 0.0208665 0.393617
701 2 0.482008 0.0501138 0.399768
702 2 0.493406 0.999794 0.402681
703 1 0.407229 0.0198835 0.605711
704 2 0.380548 0.00337481 0.601586
705 2 0.431799 1.10759e-06 0.60728
706 1 0.748769 0.370173 0.40357
707 2 0.758867 0.399108 0.411461
708 2 0.773115 0.349967 0.404207
709 1 0.163612 0.238332 0.212749
710 2 0.175229 0.257976 0.234671
711 2 0.172151 0.208641 0.219603
712 1 0.513758 0.548101 0.667387
713 2 0.483076 0.549291 0.659733
714 2 0.52682 0.5766 0.66307
715 1 0.69413 0.479029 0.456642
716 2 0.683579 0.508731 0.453838
717 2 0.725762 0.478942 0.455734
718 1 0.140733 0.647877 0.228087
719 2 0.155524 0.675571 0.232045
720 2 0.154852 0.625756 0.245773
721 1 0.883302 0.705148 0.462446
722 2 0.908145 0.70557 0.442849
723 2 0.856599 0.703123 0.445584
724 1 0.580587 0.560781 0.18593
725 2 0.589102 0.554085 0.215663
726 2 0.579472 0.534063 0.169006
727 1 0.972762 0.0526176 0.649409
728 2 0.980172 0.0218563 0.649934
729 2 0.983806 0.066576 0.675574
730 1 0.102454 0.42098 0.746404
731 2 0.106596 0.452337 0.747422
732 2 0.130628 0.40667 0.744697
733 1 0.823449 0.772505 0.0748372
734 2 0.818562 0.797862 0.0931284
735 2 0.837978 0.749994 0.0916779
736 1 0.744077 0.725274 0.0089338
737 2 0.713767 0.723143 9.02215e-05
738 2 0.747119 0.74796 0.0307859
739 1 0.197901 0.859476 0.404482
740 2 0.19376 0.841232 0.378959
741 2 0.169734 0.866689 0.416974
742 1 0.431503 0.213248 0.603515
743 2 0.446375 0.24067 0.59819
744 2 0.442706 0.191172 0.583802
745 1 0.603163 0.00293538 0.707318
746 2 0.62384 9.17722e-06 0.731094
747 2 0.61884 0.00516604 0.679919
748 1 0.445582 0.840882 0.146682
749 2 0.472503 0.8362 0.130719
750 2 0.439296 0.81546 0.164448
751 1 0.311696 0.478497 0.0778579
752 2 0.338307 0.488174 0.0637276
753 2 0.315655 0.44906 0.088776
754 1 0.367196 0.791088 0.343752
755 2 0.339083 0.776571 0.343149
756 2 0.388857 0.77162 0.35613
757 1 0.0478094 0.492459 0.0613538
758 2 0.0748074 0.504185 0.0729744
759 2 0.0433556 0.503357 0.0319797
760 1 0.111906 0.0935308 0.783096
761 2 0.0833194 0.0953837 0.769649
762 2 0.121656 0.0634247 0.783043
763 1 0.586184 0.229833 0.186015
764 2 0.607567 0.210037 0.173672
765 2 0.564092 0.23636 0.164318
766 1 0.0135079 0.24244 0.14074
767 2 0.0278708 0.244183 0.112596
768 2 0.00890206 0.212075 0.148369
769 1 0.299871 0.756684 0.236141
770 2 0.323792 0.770121 0.220373
771 2 0.272387 0.765734 0.223327
772 1 0.644125 0.405744 0.339249
773 2 0.614113 0.410924 0.347848
774 2 0.650431 0.374788 0.341091
775 1 0.225241 0.0640557 0.574538
776 2 0.254505 0.0730433 0.582555
777 2 0.222837 0.0325938 0.576948
778 1 0.381402 0.68433 0.920921
779 2 0.363535 0.663574 0.936776
780 2 0.411684 0.67521 0.922054
781 1 0.925014 0.247452 0.808418
782 2 0.91016 0.231274 0.785634
783 2 0.94366 0.269411 0.79532
784 1 0.65786 0.65057 0.989489
785 2 0.657761 0.619063 0.986529
786 2 0.686136 0.660084 4.48101e-05
787 1 0.277242 0.971151 0.685449
788 2 0.276488 9.3038e-06 0.672485
789 2 0.297982 0.970862 0.709349
790 1 0.665839 0.0285952 0.605786
791 2 0.659009 0.0567692 0.618475
792 2 0.684452 0.0123525 0.625564
793 1 0.611538 0.562477 0.627131
794 2 0.595689 0.571918 0.652843
795 2 0.636363 0.581537 0.622452
796 1 0.795815 0.659692 0.358721
797 2 0.811849 0.632411 0.359048
798 2 0.764778 0.653704 0.360244
799 1 0.229629 0.00427127 0.289542
800 2 0.231801 0.0323951 0.303887
801 2 0.200054 1.58228e-06 0.279122
802 1 0.456163 0.352747 0.435855
803 2 0.452244 0.373945 0.459023
804 2 0.479346 0.362356 0.416577
805 1 0.456453 0.350238 0.216172
806 2 0.487361 0.355917 0.219898
807 2 0.445743 0.36623 0.191053
808 1 0.061385 0.747165 0.79199
809 2 0.0926898 0.751527 0.790434
810 2 0.0552988 0.717102 0.799776
811 1 0.904046 0.248355 0.359413
812 2 0.883113 0.22565 0.352505
813 2 0.929467 0.235442 0.373143
814 1 0.438294 0.27352 0.908656
815 2 0.434579 0.242093 0.908689
816 2 0.46884 0.280534 0.91304
817 1 0.879894 0.706158 0.670689
818 2 0.890635 0.689157 0.695123
819 2 0.885078 0.736897 0.676137
820 1 0.157673 0.688969 0.748394
821 2 0.185109 0.686832 0.732769
822 2 0.147814 0.71904 0.748332
823 1 0.507771 0.399853 0.0415459
824 2 0.529984 0.414412 0.0587516
825 2 0.521485 0.379021 0.0220679
826 1 0.0369289 0.13256 0.115954
827 2 0.041055 0.14655 0.144038
828 2 0.0245529 0.153333 0.0955385
829 1 0.594201 0.023971 0.612898
830 2 0.591214 0.0483506 0.632852
831 2 0.565698 0.0114672 0.60718
832 1 0.925823 0.986328 0.333228
833 2 0.914258 0.957026 0.336242
834 2 0.927554 0.999969 0.36173
835 1 0.764345 0.920073 0.832448
836 2 0.787421 0.941721 0.832981
837 2 0.736266 0.934615 0.831205
838 1 0.695726 0.845843 0.721542
839 2 0.689622 0.870277 0.740704
840 2 0.67795 0.821078 0.730038
841 1 0.607458 0.586476 0.0138938
842 2 0.584922 0.569104 0.0277426
843 2 0.600345 0.617181 0.0167325
844 1 0.828551 0.730922 0.376233
845 2 0.814888 0.734333 0.347894
846 2 0.807181 0.72035 0.397042
847 1 0.205254 0.863784 0.525757
848 2 0.209766 0.88271 0.500799
849 2 0.175301 0.866329 0.535647
850 1 0.558504 0.0634717 0.339533
851 2 0.554327 0.0948368 0.339999
852 2 0.530755 0.0492122 0.334232
853 1 0.471756 0.436293 0.164508
854 2 0.491 0.411221 0.162922
855 2 0.455772 0.435611 0.191811
856 1 0.280378 0.492157 0.367329
857 2 0.304919 0.51192 0.370256
858 2 0.253463 0.507883 0.372778
859 1 0.68232 0.443034 0.154167
860 2 0.660573 0.459411 0.170302
861 2 0.678698 0.412135 0.15996
862 1 2.61392e-05 0.637914 0.519272
863 2 0.980929 0.655772 0.5371
864 2 0.985896 0.610281 0.513092
865 1 0.433303 0.313802 0.146847
866 2 0.415037 0.336897 0.135255
867 2 0.416112 0.287448 0.150223
868 1 0.577854 1.88291e-05 0.939164
869 2 0.583702 0.00662294 0.908772
870 2 0.546608 0.000189873 0.944172
871 1 0.455292 0.757535 0.123506
872 2 0.474442 0.751567 0.0990294
873 2 0.459038 0.735129 0.145537
874 1 0.891276 0.800922 0.48842
875 2 0.901888 0.771505 0.483574
876 2 0.859684 0.800573 0.49023
877 1 0.580647 0.794871 0.836803
878 2 0.602868 0.798974 0.814648
879 2 0.567135 0.7665 0.833064
880 1 0.407233 0.0354894 0.101258
881 2 0.413715 0.0664432 0.102396
882 2 0.429927 0.0205497 0.0850343
883 1 0.808647 0.2013 0.547515
884 2 0.794428 0.22162 0.567171
885 2 0.788381 0.178305 0.539645
886 1 0.684705 0.197278 0.789573
887 2 0.658597 0.213017 0.798064
888 2 0.676703 0.172499 0.771589
889 1 0.447185 0.737701 0.662249
890 2 0.476044 0.733965 0.649814
891 2 0.425604 0.72522 0.642756
892 1 0.0470888 0.288158 0.253634
893 2 0.0631617 0.292181 0.226672
894 2 0.0516772 0.313163 0.27248
895 1 0.868818 0.171947 0.936019
896 2 0.883797 0.19537 0.920905
897 2 0.890048 0.153384 0.950377
898 1 0.466104 0.554454 0.189219
899 2 0.483816 0.563428 0.213861
900 2 0.474767 0.525444 0.180011
901 1 0.0983906 0.049538 0.19263
902 2 0.0831917 0.0644522 0.16922
903 2 0.0935528 0.0649447 0.219845