
     Program PWSCF v.7.5 starts on  7Mar2026 at  0:21:42 

     This program is part of the open-source Quantum ESPRESSO suite
     for quantum simulation of materials; please cite
         "P. Giannozzi et al., J. Phys.:Condens. Matter 21 395502 (2009);
         "P. Giannozzi et al., J. Phys.:Condens. Matter 29 465901 (2017);
         "P. Giannozzi et al., J. Chem. Phys. 152 154105 (2020);
          URL http://www.quantum-espresso.org", 
     in publications or presentations arising from this work. More details at
     http://www.quantum-espresso.org/quote

     Parallel version (MPI & OpenMP), running on      20 processor cores
     Number of MPI processes:                 1
     Threads/MPI process:                    20

     MPI processes distributed on     1 nodes
     2034 MiB available memory on the printing compute node when the environment starts

     Waiting for input...
     Reading input from standard input

     Current dimensions of program PWSCF are:
     Max number of different atomic species (ntypx) = 10
     Max number of k-points (npk) =  40000
     Max angular momentum in pseudopotentials (lmaxx) =  4
     file Cu.pbe-dn-kjpaw_psl.1.0.0.UPF: wavefunction(s)  4S 3D renormalized
     Message from routine setup:
     using ibrav=0 with symmetry is DISCOURAGED, use correct ibrav instead

     Subspace diagonalization in iterative solution of the eigenvalue problem:
     a serial algorithm will be used


     G-vector sticks info
     --------------------
     sticks:   dense  smooth     PW     G-vecs:    dense   smooth      PW
     Sum         379     295     97                 4909     3287     645

     Using Slab Decomposition



     bravais-lattice index     =            0
     lattice parameter (alat)  =       6.8314  a.u.
     unit-cell volume          =      79.7007 (a.u.)^3
     number of atoms/cell      =            1
     number of atomic types    =            1
     number of electrons       =        11.00
     number of Kohn-Sham states=           10
     kinetic-energy cutoff     =      45.0000  Ry
     charge density cutoff     =     236.0000  Ry
     scf convergence threshold =      1.0E-08
     mixing beta               =       0.7000
     number of iterations used =            8  plain     mixing
     Exchange-correlation= SLA  PW   PBX  PBC
                           (   1   4   3   4   0   0   0)

     celldm(1)=   6.831363  celldm(2)=   0.000000  celldm(3)=   0.000000
     celldm(4)=   0.000000  celldm(5)=   0.000000  celldm(6)=   0.000000

     crystal axes: (cart. coord. in units of alat)
               a(1) = (   0.000000   0.500000   0.500000 )  
               a(2) = (   0.500000   0.000000   0.500000 )  
               a(3) = (   0.500000   0.500000   0.000000 )  

     reciprocal axes: (cart. coord. in units 2 pi/alat)
               b(1) = ( -1.000000  1.000000  1.000000 )  
               b(2) = (  1.000000 -1.000000  1.000000 )  
               b(3) = (  1.000000  1.000000 -1.000000 )  


     PseudoPot. # 1 for Cu read from file:
     ./Cu.pbe-dn-kjpaw_psl.1.0.0.UPF
     MD5 check sum: cfffd1f38ee05704b3e17f46f1730a6f
     Pseudo is Projector augmented-wave + core cor, Zval = 11.0
     Generated using &quot;atomic&quot; code by A. Dal Corso  v.6.3
     Shape of augmentation charge: PSQ
     Using radial grid of 1199 points,  6 beta functions with: 
                l(1) =   0
                l(2) =   0
                l(3) =   1
                l(4) =   1
                l(5) =   2
                l(6) =   2
     Q(r) pseudized with 0 coefficients 


     atomic species   valence    mass     pseudopotential
     Cu               11.00    63.54600     Cu( 1.00)

     48 Sym. Ops., with inversion, found



   Cartesian axes

     site n.     atom                  positions (alat units)
         1        Cu     tau(   1) = (   0.0000000   0.0000000   0.0000000  )

     number of k points=   104  Marzari-Vanderbilt smearing, width (Ry)=  0.0200

     Number of k-points >= 100: set verbosity='high' to print them.

     Dense  grid:     4909 G-vectors     FFT dimensions: (  24,  24,  24)

     Smooth grid:     3287 G-vectors     FFT dimensions: (  24,  24,  24)

     Estimated max dynamical RAM per process >      24.84 MB

     Initial potential from superposition of free atoms

     starting charge      10.9998, renormalised to      11.0000
     Starting wfcs are    9 randomized atomic wfcs +    1 random wfcs
     Checking if some PAW data can be deallocated... 

     total cpu time spent up to now is       10.1 secs

     Self-consistent Calculation

     iteration #  1     ecut=    45.00 Ry     beta= 0.70
     Davidson diagonalization with overlap
     ethr =  1.00E-02,  avg # of iterations =  4.2

     Threshold (ethr) on eigenvalues was too large:
     Diagonalizing with lowered threshold

     Davidson diagonalization with overlap
     ethr =  5.65E-04,  avg # of iterations =  1.2

     total cpu time spent up to now is       63.8 secs

     total energy              =    -213.05725667 Ry
     estimated scf accuracy    <       0.06192608 Ry

     iteration #  2     ecut=    45.00 Ry     beta= 0.70
     Davidson diagonalization with overlap
     ethr =  5.63E-04,  avg # of iterations =  2.1

     total cpu time spent up to now is       92.3 secs

     total energy              =    -213.05913464 Ry
     estimated scf accuracy    <       0.22360727 Ry

     iteration #  3     ecut=    45.00 Ry     beta= 0.70
     Davidson diagonalization with overlap
     ethr =  5.63E-04,  avg # of iterations =  2.1

     total cpu time spent up to now is      120.4 secs

     total energy              =    -213.09406619 Ry
     estimated scf accuracy    <       0.00012480 Ry

     iteration #  4     ecut=    45.00 Ry     beta= 0.70
     Davidson diagonalization with overlap
     ethr =  1.13E-06,  avg # of iterations =  3.5

     total cpu time spent up to now is      153.2 secs

     total energy              =    -213.09411944 Ry
     estimated scf accuracy    <       0.00003650 Ry

     iteration #  5     ecut=    45.00 Ry     beta= 0.70
     Davidson diagonalization with overlap
     ethr =  3.32E-07,  avg # of iterations =  1.4

     total cpu time spent up to now is      175.5 secs

     total energy              =    -213.09412790 Ry
     estimated scf accuracy    <       0.00000302 Ry

     iteration #  6     ecut=    45.00 Ry     beta= 0.70
     Davidson diagonalization with overlap
     ethr =  2.74E-08,  avg # of iterations =  1.4

     total cpu time spent up to now is      197.6 secs

     End of self-consistent calculation

     Number of k-points >= 100: set verbosity='high' to print the bands.

     the Fermi energy is    12.6266 ev

!    total energy              =    -213.09412845 Ry
     total all-electron energy =     -3309.973895 Ry
     estimated scf accuracy    <          5.7E-10 Ry
     smearing contrib. (-TS)   =       0.00012791 Ry
     internal energy E=F+TS    =    -213.09425636 Ry

     The total energy is F=E-TS. E is the sum of the following terms:
     one-electron contribution =     -28.03704294 Ry
     hartree contribution      =      30.62940762 Ry
     xc contribution           =     -44.63014043 Ry
     ewald contribution        =     -81.20902643 Ry
     one-center paw contrib.   =     -89.84745418 Ry

     convergence has been achieved in   6 iterations

     Writing all to output data dir ./tmp/cu.save/ :
     XML data file, charge density, pseudopotentials, collected wavefunctions

     init_run     :     32.21s CPU     10.06s WALL (       1 calls)
     electrons    :    615.21s CPU    187.50s WALL (       1 calls)

     Called by init_run:
     wfcinit      :     31.84s CPU      9.69s WALL (       1 calls)
     potinit      :      0.08s CPU      0.07s WALL (       1 calls)
     hinit0       :      0.28s CPU      0.29s WALL (       1 calls)

     Called by electrons:
     c_bands      :    597.38s CPU    172.34s WALL (       7 calls)
     sum_band     :     15.59s CPU     14.65s WALL (       7 calls)
     v_of_rho     :      0.08s CPU      0.02s WALL (       7 calls)
     newd         :      0.09s CPU      0.06s WALL (       7 calls)
     PAW_pot      :      2.12s CPU      0.49s WALL (       7 calls)
     mix_rho      :      0.02s CPU      0.00s WALL (       7 calls)

     Called by c_bands:
     init_us_2    :      0.49s CPU      0.12s WALL (    1560 calls)
     cegterg      :    596.61s CPU    172.18s WALL (     728 calls)

     Called by *egterg:
     cdiaghg      :      0.77s CPU      0.15s WALL (    2278 calls)
     h_psi        :    623.99s CPU    180.94s WALL (    2486 calls)
     s_psi        :      0.38s CPU      0.09s WALL (    2486 calls)
     g_psi        :      0.05s CPU      0.01s WALL (    1654 calls)

     Called by h_psi:
     h_psi:calbec :      0.12s CPU      0.08s WALL (    2486 calls)
     vloc_psi     :    622.58s CPU    180.55s WALL (    2486 calls)
                                        0.00s GPU  (    2486 calls)
     add_vuspsi   :      0.42s CPU      0.12s WALL (    2486 calls)

     General routines
     calbec       :      0.12s CPU      0.09s WALL (    3214 calls)
     fft          :      0.25s CPU      0.22s WALL (      90 calls)
     ffts         :      0.00s CPU      0.00s WALL (      14 calls)
     fftw         :    633.42s CPU    193.66s WALL (   44942 calls)
     interpolate  :      0.00s CPU      0.01s WALL (       7 calls)

     Parallel routines

     PWSCF        :  10m47.56s CPU   3m17.64s WALL


   This run was terminated on:   0:25: 0   7Mar2026            

=------------------------------------------------------------------------------=
   JOB DONE.
=------------------------------------------------------------------------------=
