
     Program PWSCF v.7.5 starts on  7Mar2026 at  0:19:25 

     This program is part of the open-source Quantum ESPRESSO suite
     for quantum simulation of materials; please cite
         "P. Giannozzi et al., J. Phys.:Condens. Matter 21 395502 (2009);
         "P. Giannozzi et al., J. Phys.:Condens. Matter 29 465901 (2017);
         "P. Giannozzi et al., J. Chem. Phys. 152 154105 (2020);
          URL http://www.quantum-espresso.org", 
     in publications or presentations arising from this work. More details at
     http://www.quantum-espresso.org/quote

     Parallel version (MPI & OpenMP), running on      20 processor cores
     Number of MPI processes:                 1
     Threads/MPI process:                    20

     MPI processes distributed on     1 nodes
     1818 MiB available memory on the printing compute node when the environment starts

     Waiting for input...
     Reading input from standard input

     Current dimensions of program PWSCF are:
     Max number of different atomic species (ntypx) = 10
     Max number of k-points (npk) =  40000
     Max angular momentum in pseudopotentials (lmaxx) =  4
     file Cu.pbe-dn-kjpaw_psl.1.0.0.UPF: wavefunction(s)  4S 3D renormalized
     Message from routine setup:
     using ibrav=0 with symmetry is DISCOURAGED, use correct ibrav instead

     Subspace diagonalization in iterative solution of the eigenvalue problem:
     a serial algorithm will be used


     G-vector sticks info
     --------------------
     sticks:   dense  smooth     PW     G-vecs:    dense   smooth      PW
     Sum         379     295     97                 4909     3287     645

     Using Slab Decomposition



     bravais-lattice index     =            0
     lattice parameter (alat)  =       6.8314  a.u.
     unit-cell volume          =      79.7007 (a.u.)^3
     number of atoms/cell      =            1
     number of atomic types    =            1
     number of electrons       =        11.00
     number of Kohn-Sham states=           10
     kinetic-energy cutoff     =      45.0000  Ry
     charge density cutoff     =     236.0000  Ry
     scf convergence threshold =      1.0E-08
     mixing beta               =       0.7000
     number of iterations used =            8  plain     mixing
     Exchange-correlation= SLA  PW   PBX  PBC
                           (   1   4   3   4   0   0   0)

     celldm(1)=   6.831363  celldm(2)=   0.000000  celldm(3)=   0.000000
     celldm(4)=   0.000000  celldm(5)=   0.000000  celldm(6)=   0.000000

     crystal axes: (cart. coord. in units of alat)
               a(1) = (   0.000000   0.500000   0.500000 )  
               a(2) = (   0.500000   0.000000   0.500000 )  
               a(3) = (   0.500000   0.500000   0.000000 )  

     reciprocal axes: (cart. coord. in units 2 pi/alat)
               b(1) = ( -1.000000  1.000000  1.000000 )  
               b(2) = (  1.000000 -1.000000  1.000000 )  
               b(3) = (  1.000000  1.000000 -1.000000 )  


     PseudoPot. # 1 for Cu read from file:
     ./Cu.pbe-dn-kjpaw_psl.1.0.0.UPF
     MD5 check sum: cfffd1f38ee05704b3e17f46f1730a6f
     Pseudo is Projector augmented-wave + core cor, Zval = 11.0
     Generated using &quot;atomic&quot; code by A. Dal Corso  v.6.3
     Shape of augmentation charge: PSQ
     Using radial grid of 1199 points,  6 beta functions with: 
                l(1) =   0
                l(2) =   0
                l(3) =   1
                l(4) =   1
                l(5) =   2
                l(6) =   2
     Q(r) pseudized with 0 coefficients 


     atomic species   valence    mass     pseudopotential
     Cu               11.00    63.54600     Cu( 1.00)

     48 Sym. Ops., with inversion, found



   Cartesian axes

     site n.     atom                  positions (alat units)
         1        Cu     tau(   1) = (   0.0000000   0.0000000   0.0000000  )

     number of k points=    72  Marzari-Vanderbilt smearing, width (Ry)=  0.0200
                       cart. coord. in units 2pi/alat
        k(    1) = (   0.0000000   0.0000000   0.0000000), wk =   0.0011574
        k(    2) = (   0.0833333   0.0833333  -0.0833333), wk =   0.0092593
        k(    3) = (   0.1666667   0.1666667  -0.1666667), wk =   0.0092593
        k(    4) = (   0.2500000   0.2500000  -0.2500000), wk =   0.0092593
        k(    5) = (   0.3333333   0.3333333  -0.3333333), wk =   0.0092593
        k(    6) = (   0.4166667   0.4166667  -0.4166667), wk =   0.0092593
        k(    7) = (  -0.5000000  -0.5000000   0.5000000), wk =   0.0046296
        k(    8) = (   0.1666667   0.0000000   0.0000000), wk =   0.0069444
        k(    9) = (   0.2500000   0.0833333  -0.0833333), wk =   0.0277778
        k(   10) = (   0.3333333   0.1666667  -0.1666667), wk =   0.0277778
        k(   11) = (   0.4166667   0.2500000  -0.2500000), wk =   0.0277778
        k(   12) = (   0.5000000   0.3333333  -0.3333333), wk =   0.0277778
        k(   13) = (  -0.4166667  -0.5833333   0.5833333), wk =   0.0277778
        k(   14) = (  -0.3333333  -0.5000000   0.5000000), wk =   0.0277778
        k(   15) = (  -0.2500000  -0.4166667   0.4166667), wk =   0.0277778
        k(   16) = (  -0.1666667  -0.3333333   0.3333333), wk =   0.0277778
        k(   17) = (  -0.0833333  -0.2500000   0.2500000), wk =   0.0277778
        k(   18) = (  -0.0000000  -0.1666667   0.1666667), wk =   0.0138889
        k(   19) = (   0.3333333   0.0000000   0.0000000), wk =   0.0069444
        k(   20) = (   0.4166667   0.0833333  -0.0833333), wk =   0.0277778
        k(   21) = (   0.5000000   0.1666667  -0.1666667), wk =   0.0277778
        k(   22) = (   0.5833333   0.2500000  -0.2500000), wk =   0.0277778
        k(   23) = (  -0.3333333  -0.6666667   0.6666667), wk =   0.0277778
        k(   24) = (  -0.2500000  -0.5833333   0.5833333), wk =   0.0277778
        k(   25) = (  -0.1666667  -0.5000000   0.5000000), wk =   0.0277778
        k(   26) = (  -0.0833333  -0.4166667   0.4166667), wk =   0.0277778
        k(   27) = (   0.0000000  -0.3333333   0.3333333), wk =   0.0138889
        k(   28) = (   0.5000000   0.0000000   0.0000000), wk =   0.0069444
        k(   29) = (   0.5833333   0.0833333  -0.0833333), wk =   0.0277778
        k(   30) = (   0.6666667   0.1666667  -0.1666667), wk =   0.0277778
        k(   31) = (  -0.2500000  -0.7500000   0.7500000), wk =   0.0277778
        k(   32) = (  -0.1666667  -0.6666667   0.6666667), wk =   0.0277778
        k(   33) = (  -0.0833333  -0.5833333   0.5833333), wk =   0.0277778
        k(   34) = (   0.0000000  -0.5000000   0.5000000), wk =   0.0138889
        k(   35) = (   0.6666667   0.0000000   0.0000000), wk =   0.0069444
        k(   36) = (   0.7500000   0.0833333  -0.0833333), wk =   0.0277778
        k(   37) = (  -0.1666667  -0.8333333   0.8333333), wk =   0.0277778
        k(   38) = (  -0.0833333  -0.7500000   0.7500000), wk =   0.0277778
        k(   39) = (  -0.0000000  -0.6666667   0.6666667), wk =   0.0138889
        k(   40) = (   0.8333333   0.0000000   0.0000000), wk =   0.0069444
        k(   41) = (  -0.0833333  -0.9166667   0.9166667), wk =   0.0277778
        k(   42) = (   0.0000000  -0.8333333   0.8333333), wk =   0.0138889
        k(   43) = (  -1.0000000   0.0000000   0.0000000), wk =   0.0034722
        k(   44) = (   0.3333333   0.1666667   0.0000000), wk =   0.0277778
        k(   45) = (   0.4166667   0.2500000  -0.0833333), wk =   0.0555556
        k(   46) = (   0.5000000   0.3333333  -0.1666667), wk =   0.0555556
        k(   47) = (  -0.4166667  -0.5833333   0.7500000), wk =   0.0555556
        k(   48) = (  -0.3333333  -0.5000000   0.6666667), wk =   0.0277778
        k(   49) = (   0.5000000   0.1666667   0.0000000), wk =   0.0277778
        k(   50) = (   0.5833333   0.2500000  -0.0833333), wk =   0.0555556
        k(   51) = (  -0.3333333  -0.6666667   0.8333333), wk =   0.0555556
        k(   52) = (  -0.2500000  -0.5833333   0.7500000), wk =   0.0555556
        k(   53) = (  -0.1666667  -0.5000000   0.6666667), wk =   0.0555556
        k(   54) = (  -0.0833333  -0.4166667   0.5833333), wk =   0.0555556
        k(   55) = (   0.0000000  -0.3333333   0.5000000), wk =   0.0277778
        k(   56) = (   0.6666667   0.1666667  -0.0000000), wk =   0.0277778
        k(   57) = (  -0.2500000  -0.7500000   0.9166667), wk =   0.0555556
        k(   58) = (  -0.1666667  -0.6666667   0.8333333), wk =   0.0555556
        k(   59) = (  -0.0833333  -0.5833333   0.7500000), wk =   0.0555556
        k(   60) = (   0.0000000  -0.5000000   0.6666667), wk =   0.0277778
        k(   61) = (  -0.1666667  -0.8333333   1.0000000), wk =   0.0277778
        k(   62) = (  -0.0833333  -0.7500000   0.9166667), wk =   0.0555556
        k(   63) = (   0.0000000  -0.6666667   0.8333333), wk =   0.0277778
        k(   64) = (  -1.0000000   0.1666667  -0.0000000), wk =   0.0138889
        k(   65) = (  -0.3333333  -0.6666667   1.0000000), wk =   0.0277778
        k(   66) = (  -0.2500000  -0.5833333   0.9166667), wk =   0.0555556
        k(   67) = (  -0.1666667  -0.5000000   0.8333333), wk =   0.0277778
        k(   68) = (  -0.1666667  -0.6666667   1.0000000), wk =   0.0277778
        k(   69) = (  -0.0833333  -0.5833333   0.9166667), wk =   0.0555556
        k(   70) = (   0.0000000  -0.5000000   0.8333333), wk =   0.0277778
        k(   71) = (  -1.0000000   0.3333333   0.0000000), wk =   0.0138889
        k(   72) = (  -1.0000000   0.5000000   0.0000000), wk =   0.0069444

     Dense  grid:     4909 G-vectors     FFT dimensions: (  24,  24,  24)

     Smooth grid:     3287 G-vectors     FFT dimensions: (  24,  24,  24)

     Estimated max dynamical RAM per process >      22.85 MB

     Initial potential from superposition of free atoms

     starting charge      10.9998, renormalised to      11.0000
     Starting wfcs are    9 randomized atomic wfcs +    1 random wfcs
     Checking if some PAW data can be deallocated... 

     total cpu time spent up to now is        7.3 secs

     Self-consistent Calculation

     iteration #  1     ecut=    45.00 Ry     beta= 0.70
     Davidson diagonalization with overlap
     ethr =  1.00E-02,  avg # of iterations =  4.1

     Threshold (ethr) on eigenvalues was too large:
     Diagonalizing with lowered threshold

     Davidson diagonalization with overlap
     ethr =  5.67E-04,  avg # of iterations =  1.3

     total cpu time spent up to now is       45.2 secs

     total energy              =    -213.05690533 Ry
     estimated scf accuracy    <       0.06222372 Ry

     iteration #  2     ecut=    45.00 Ry     beta= 0.70
     Davidson diagonalization with overlap
     ethr =  5.66E-04,  avg # of iterations =  2.1

     total cpu time spent up to now is       65.0 secs

     total energy              =    -213.05867968 Ry
     estimated scf accuracy    <       0.22538320 Ry

     iteration #  3     ecut=    45.00 Ry     beta= 0.70
     Davidson diagonalization with overlap
     ethr =  5.66E-04,  avg # of iterations =  2.1

     total cpu time spent up to now is       84.4 secs

     total energy              =    -213.09379807 Ry
     estimated scf accuracy    <       0.00011315 Ry

     iteration #  4     ecut=    45.00 Ry     beta= 0.70
     Davidson diagonalization with overlap
     ethr =  1.03E-06,  avg # of iterations =  3.2

     total cpu time spent up to now is      106.4 secs

     total energy              =    -213.09384517 Ry
     estimated scf accuracy    <       0.00003720 Ry

     iteration #  5     ecut=    45.00 Ry     beta= 0.70
     Davidson diagonalization with overlap
     ethr =  3.38E-07,  avg # of iterations =  1.8

     total cpu time spent up to now is      122.3 secs

     total energy              =    -213.09385438 Ry
     estimated scf accuracy    <       0.00000609 Ry

     iteration #  6     ecut=    45.00 Ry     beta= 0.70
     Davidson diagonalization with overlap
     ethr =  5.54E-08,  avg # of iterations =  1.2

     total cpu time spent up to now is      137.1 secs

     End of self-consistent calculation

          k = 0.0000 0.0000 0.0000 (   411 PWs)   bands (ev):

     3.2631   9.6622   9.6622   9.6622  10.4929  10.4929  35.5722  37.9684
    37.9684  37.9684

          k = 0.0833 0.0833-0.0833 (   405 PWs)   bands (ev):

     3.5152   9.6095   9.7092   9.7092  10.4757  10.4757  33.6368  36.3208
    37.2282  37.2282

          k = 0.1667 0.1667-0.1667 (   396 PWs)   bands (ev):

     4.2513   9.4846   9.8024   9.8024  10.4680  10.4680  29.3204  35.9146
    36.2147  36.2147

          k = 0.2500 0.2500-0.2500 (   401 PWs)   bands (ev):

     5.3860   9.4015   9.8198   9.8198  10.5775  10.5775  25.1022  35.3558
    35.4561  35.4561

          k = 0.3333 0.3333-0.3333 (   401 PWs)   bands (ev):

     6.6399   9.6398   9.7437   9.7437  10.7952  10.7952  21.2606  34.6863
    34.9920  34.9920

          k = 0.4167 0.4167-0.4167 (   413 PWs)   bands (ev):

     7.4025   9.6611   9.6611  10.6623  10.9902  10.9902  18.0344  34.1696
    34.7831  34.7831

          k =-0.5000-0.5000 0.5000 (   410 PWs)   bands (ev):

     7.5783   9.6284   9.6284  11.0666  11.0666  11.6211  16.4153  33.9793
    34.7365  34.7365

          k = 0.1667 0.0000 0.0000 (   399 PWs)   bands (ev):

     3.5989   9.5628   9.7430   9.7430  10.4045  10.5297  34.5008  35.4825
    35.4825  36.7664

          k = 0.2500 0.0833-0.0833 (   400 PWs)   bands (ev):

     4.1731   9.4411   9.8373   9.8426  10.3311  10.5652  30.9407  34.1027
    34.6958  37.7385

          k = 0.3333 0.1667-0.1667 (   404 PWs)   bands (ev):

     5.1796   9.3155   9.8453   9.9007  10.4229  10.6636  26.6482  33.1392
    34.0991  37.5188

          k = 0.4167 0.2500-0.2500 (   403 PWs)   bands (ev):

     6.4276   9.3463   9.7256   9.8572  10.7605  10.8493  22.6604  32.6211
    33.5473  35.4749

          k = 0.5000 0.3333-0.3333 (   411 PWs)   bands (ev):

     7.3868   9.5909   9.7725   9.8411  11.0185  11.3580  19.1619  32.5877
    32.8440  34.1716

          k =-0.4167-0.5833 0.5833 (   407 PWs)   bands (ev):

     7.6986   9.5403   9.7138  10.3653  11.0719  12.3662  16.7065  31.8621
    33.0829  33.9237

          k =-0.3333-0.5000 0.5000 (   405 PWs)   bands (ev):

     7.6497   9.5657   9.7150  10.2948  10.9709  12.0787  17.3216  31.1378
    34.1287  34.3057

          k =-0.2500-0.4167 0.4167 (   408 PWs)   bands (ev):

     7.1463   9.6539   9.6596   9.7792  10.7440  11.2908  20.2625  30.8580
    35.1574  35.6953

          k =-0.1667-0.3333 0.3333 (   404 PWs)   bands (ev):

     6.0106   9.3294   9.7727   9.8746  10.4780  10.9012  23.9504  31.0252
    36.3679  37.5916

          k =-0.0833-0.2500 0.2500 (   396 PWs)   bands (ev):

     4.8034   9.3778   9.8342   9.8919  10.3325  10.6501  28.0558  31.6129
    37.4900  38.7335

          k =-0.0000-0.1667 0.1667 (   399 PWs)   bands (ev):

     3.9289   9.5156   9.7795   9.7875  10.3864  10.5305  32.0809  32.9392
    37.3956  38.8982

          k = 0.3333 0.0000 0.0000 (   399 PWs)   bands (ev):

     4.5734   9.2949   9.9756   9.9756  10.1830  10.6299  32.4262  32.4262
    32.9226  34.5918

          k = 0.4167 0.0833-0.0833 (   404 PWs)   bands (ev):

     5.4087   9.1335   9.9204  10.0975  10.3264  10.7197  28.5211  31.2149
    32.8686  34.2894

          k = 0.5000 0.1667-0.1667 (   405 PWs)   bands (ev):

     6.5379   9.0362   9.7127  10.1045  10.8198  10.8876  24.4478  30.5082
    31.5601  33.3713

          k = 0.5833 0.2500-0.2500 (   406 PWs)   bands (ev):

     7.5639   9.1266   9.5782  10.0324  11.0457  11.6892  20.7412  29.8629
    30.3526  33.0151

          k =-0.3333-0.6667 0.6667 (   409 PWs)   bands (ev):

     8.0051   9.2497   9.7322   9.9557  11.0863  13.1339  17.6708  28.4248
    30.7856  33.0647

          k =-0.2500-0.5833 0.5833 (   405 PWs)   bands (ev):

     8.0649   9.2997   9.8157   9.9203  10.9687  13.6550  16.9769  27.4160
    31.8127  33.5059

          k =-0.1667-0.5000 0.5000 (   410 PWs)   bands (ev):

     7.8234   9.4206   9.4903   9.9471  10.7195  12.3202  19.6527  26.8909
    33.3958  34.3876

          k =-0.0833-0.4167 0.4167 (   404 PWs)   bands (ev):

     6.9547   9.1975   9.6107  10.0351  10.4097  11.4676  23.1920  26.8637
    35.4642  35.7400

          k = 0.0000-0.3333 0.3333 (   397 PWs)   bands (ev):

     5.7699   9.2346   9.7713  10.0905  10.1949  10.9702  26.8877  27.5924
    37.4884  37.9255

          k = 0.5000 0.0000 0.0000 (   415 PWs)   bands (ev):

     6.0291   8.9376  10.0249  10.3289  10.3289  10.7675  29.7507  29.7507
    31.0395  31.6878

          k = 0.5833 0.0833-0.0833 (   413 PWs)   bands (ev):

     6.9014   8.7846   9.9236  10.4336  10.8080  10.8989  26.4927  28.8123
    28.8499  32.1590

          k = 0.6667 0.1667-0.1667 (   412 PWs)   bands (ev):

     7.7332   8.7353   9.7694  10.3907  11.0624  11.8642  22.7445  26.8465
    28.4654  32.1995

          k =-0.2500-0.7500 0.7500 (   412 PWs)   bands (ev):

     8.2287   8.8085   9.6753  10.3060  11.1074  13.6015  19.3611  25.2233
    28.7537  32.2974

          k =-0.1667-0.6667 0.6667 (   405 PWs)   bands (ev):

     8.4432   8.9180   9.5969  10.2329  10.9899  15.3978  17.0910  24.0403
    29.6718  32.6590

          k =-0.0833-0.5833 0.5833 (   406 PWs)   bands (ev):

     8.4399   9.0963   9.3624  10.1924  10.7496  13.8468  19.3487  23.3582
    31.1601  33.3610

          k = 0.0000-0.5000 0.5000 (   407 PWs)   bands (ev):

     7.9394   9.1488   9.3592  10.1645  10.4926  12.3726  22.3607  23.5629
    33.1270  34.4315

          k = 0.6667 0.0000 0.0000 (   419 PWs)   bands (ev):

     7.3538   8.5903  10.5801  10.7349  10.7349  10.9070  26.3136  27.6300
    27.6300  30.8592

          k = 0.7500 0.0833-0.0833 (   410 PWs)   bands (ev):

     7.7502   8.4891  10.4790  10.7648  11.0617  11.9575  24.1816  25.0040
    27.0548  31.4015

          k =-0.1667-0.8333 0.8333 (   411 PWs)   bands (ev):

     8.0736   8.5088  10.2085  10.6833  11.1333  13.8651  21.6098  22.5203
    27.1524  31.6962

          k =-0.0833-0.7500 0.7500 (   408 PWs)   bands (ev):

     8.3699   8.6241   9.8810  10.5740  11.0398  16.2021  18.5639  21.3445
    27.9230  32.0061

          k =-0.0000-0.6667 0.6667 (   403 PWs)   bands (ev):

     8.6222   8.7886   9.5239  10.4213  10.8672  15.9017  18.5773  21.1396
    29.2951  32.5434

          k = 0.8333 0.0000 0.0000 (   404 PWs)   bands (ev):

     7.7601   8.3429  11.0110  11.0754  11.0754  12.5286  22.0471  26.2387
    26.2387  30.3922

          k =-0.0833-0.9167 0.9167 (   413 PWs)   bands (ev):

     7.8633   8.3213  10.8942  10.9648  11.1716  14.0414  20.5320  24.1586
    26.1122  31.0579

          k = 0.0000-0.8333 0.8333 (   411 PWs)   bands (ev):

     8.0785   8.4296  10.4197  10.8342  11.1221  15.6095  20.0032  21.2516
    26.6966  31.5434

          k =-1.0000 0.0000 0.0000 (   412 PWs)   bands (ev):

     7.7843   8.2523  11.0489  11.2112  11.2112  14.1255  19.7664  25.7488
    25.7488  30.2406

          k = 0.3333 0.1667 0.0000 (   398 PWs)   bands (ev):

     4.8839   9.2952   9.8725   9.9859  10.2662  10.6780  29.5500  30.2042
    36.2411  36.4740

          k = 0.4167 0.2500-0.0833 (   403 PWs)   bands (ev):

     5.9709   9.1750   9.7525  10.0554  10.4007  10.9438  25.6225  29.1888
    34.5268  36.4794

          k = 0.5000 0.3333-0.1667 (   406 PWs)   bands (ev):

     7.1477   9.2371   9.5848   9.9807  10.7178  11.4254  21.7726  28.8889
    32.5990  35.9009

          k =-0.4167-0.5833 0.7500 (   405 PWs)   bands (ev):

     7.8227   9.3993   9.6968   9.9054  10.9588  12.4114  18.4532  29.0621
    31.0072  35.4486

          k =-0.3333-0.5000 0.6667 (   402 PWs)   bands (ev):

     7.9643   9.3600   9.8597   9.9531  11.0345  13.4681  16.6068  29.5234
    30.0606  35.2799

          k = 0.5000 0.1667 0.0000 (   407 PWs)   bands (ev):

     6.3001   8.9751   9.7828  10.3302  10.4373  10.9362  27.3661  27.9000
    31.5726  34.5518

          k = 0.5833 0.2500-0.0833 (   408 PWs)   bands (ev):

     7.3400   8.9007   9.5846  10.3256  10.7550  11.5119  23.6710  27.2098
    29.4552  34.9137

          k =-0.3333-0.6667 0.8333 (   405 PWs)   bands (ev):

     8.0823   8.9779   9.4783  10.2296  10.9892  12.7309  20.1202  27.1952
    27.7427  34.8972

          k =-0.2500-0.5833 0.7500 (   407 PWs)   bands (ev):

     8.3372   9.0300   9.5765  10.1415  11.0308  14.5229  17.2933  26.2809
    27.8873  35.1546

          k =-0.1667-0.5000 0.6667 (   407 PWs)   bands (ev):

     8.3396   9.1002   9.4902  10.1285  10.9133  13.9923  18.0996  25.4098
    28.9615  35.8217

          k =-0.0833-0.4167 0.5833 (   411 PWs)   bands (ev):

     7.9806   9.1254   9.3386  10.1957  10.6638  12.4263  21.2673  25.0404
    30.4917  36.9474

          k = 0.0000-0.3333 0.5000 (   410 PWs)   bands (ev):

     7.0347   9.0653   9.5538  10.2751  10.3613  11.4934  24.6625  25.4816
    32.4086  38.6925

          k = 0.6667 0.1667-0.0000 (   415 PWs)   bands (ev):

     7.5694   8.6586   9.9308  10.7332  10.7819  11.5599  25.6048  26.0439
    26.6914  33.3429

          k =-0.2500-0.7500 0.9167 (   408 PWs)   bands (ev):

     8.0851   8.6473   9.7974  10.6301  11.0163  12.9778  22.2499  24.6932
    25.8197  33.9883

          k =-0.1667-0.6667 0.8333 (   410 PWs)   bands (ev):

     8.4146   8.7239   9.6441  10.4844  11.0709  15.0716  19.0349  23.2393
    26.2536  34.3255

          k =-0.0833-0.5833 0.7500 (   405 PWs)   bands (ev):

     8.6717   8.7871   9.4390  10.3777  10.9588  16.0276  17.9622  22.2706
    27.2359  34.9458

          k = 0.0000-0.5000 0.6667 (   401 PWs)   bands (ev):

     8.5890   9.0269   9.1729  10.3296  10.7625  13.9555  20.5321  22.2375
    28.6744  35.9269

          k =-0.1667-0.8333 1.0000 (   414 PWs)   bands (ev):

     7.9293   8.4306  10.4516  10.9335  11.0743  13.3195  22.2667  24.4211
    24.9634  32.6465

          k =-0.0833-0.7500 0.9167 (   410 PWs)   bands (ev):

     8.1479   8.5025  10.1718  10.7719  11.1519  15.2731  20.8674  21.5121
    25.0370  33.5529

          k = 0.0000-0.6667 0.8333 (   410 PWs)   bands (ev):

     8.4193   8.6597   9.7747  10.5867  11.0766  17.2003  18.5474  20.5572
    25.8944  34.1428

          k =-1.0000 0.1667-0.0000 (   414 PWs)   bands (ev):

     7.9382   8.3482  10.6972  10.9324  11.2112  14.9399  19.8919  23.9978
    24.5441  32.4213

          k =-0.3333-0.6667 1.0000 (   407 PWs)   bands (ev):

     8.1096   8.8596   9.3778  10.5384  10.7344  12.5966  22.9146  23.9308
    27.4057  37.4199

          k =-0.2500-0.5833 0.9167 (   407 PWs)   bands (ev):

     8.5446   8.9084   9.2649  10.4241  10.9516  14.3247  19.8745  23.7896
    25.7536  37.8145

          k =-0.1667-0.5000 0.8333 (   406 PWs)   bands (ev):

     8.7421   8.7755   9.3450  10.3484  11.0347  16.2132  17.4455  24.4048
    24.6446  37.7499

          k =-0.1667-0.6667 1.0000 (   404 PWs)   bands (ev):

     8.3411   8.7005   9.6462  10.6549  11.0720  14.7342  21.7548  22.8320
    23.1275  36.6375

          k =-0.0833-0.5833 0.9167 (   405 PWs)   bands (ev):

     8.5195   8.8534   9.4322  10.4982  11.1444  16.9947  19.0959  21.7386
    23.1733  37.7299

          k = 0.0000-0.5000 0.8333 (   404 PWs)   bands (ev):

     8.6457   9.0188   9.1558  10.4416  11.0702  16.4472  19.2997  21.4665
    24.2314  38.4801

          k =-1.0000 0.3333 0.0000 (   406 PWs)   bands (ev):

     8.3019   8.6413   9.8548  10.6432  11.2116  16.6769  20.3125  21.3406
    22.6637  36.3773

          k =-1.0000 0.5000 0.0000 (   396 PWs)   bands (ev):

     8.5316   9.1438   9.1438  10.4506  11.2122  18.8522  18.8522  20.9667
    21.4425  41.0568

     the Fermi energy is    12.6118 ev

!    total energy              =    -213.09385539 Ry
     total all-electron energy =     -3309.973621 Ry
     estimated scf accuracy    <          9.6E-10 Ry
     smearing contrib. (-TS)   =      -0.00004532 Ry
     internal energy E=F+TS    =    -213.09381007 Ry

     The total energy is F=E-TS. E is the sum of the following terms:
     one-electron contribution =     -28.03383120 Ry
     hartree contribution      =      30.62612636 Ry
     xc contribution           =     -44.62951384 Ry
     ewald contribution        =     -81.20902643 Ry
     one-center paw contrib.   =     -89.84756495 Ry

     convergence has been achieved in   6 iterations

     Writing all to output data dir ./tmp/cu.save/ :
     XML data file, charge density, pseudopotentials, collected wavefunctions

     init_run     :     22.16s CPU      7.29s WALL (       1 calls)
     electrons    :    420.66s CPU    129.72s WALL (       1 calls)

     Called by init_run:
     wfcinit      :     21.76s CPU      6.92s WALL (       1 calls)
     potinit      :      0.09s CPU      0.06s WALL (       1 calls)
     hinit0       :      0.29s CPU      0.29s WALL (       1 calls)

     Called by electrons:
     c_bands      :    407.23s CPU    118.85s WALL (       7 calls)
     sum_band     :     11.24s CPU     10.32s WALL (       7 calls)
     v_of_rho     :      0.09s CPU      0.02s WALL (       7 calls)
     newd         :      0.07s CPU      0.06s WALL (       7 calls)
     PAW_pot      :      2.12s CPU      0.53s WALL (       7 calls)
     mix_rho      :      0.02s CPU      0.00s WALL (       7 calls)

     Called by c_bands:
     init_us_2    :      0.37s CPU      0.09s WALL (    1080 calls)
     cegterg      :    406.65s CPU    118.74s WALL (     504 calls)

     Called by *egterg:
     cdiaghg      :      0.51s CPU      0.11s WALL (    1564 calls)
     h_psi        :    425.34s CPU    125.00s WALL (    1708 calls)
     s_psi        :      0.32s CPU      0.07s WALL (    1708 calls)
     g_psi        :      0.04s CPU      0.01s WALL (    1132 calls)

     Called by h_psi:
     h_psi:calbec :      0.06s CPU      0.05s WALL (    1708 calls)
     vloc_psi     :    424.33s CPU    124.73s WALL (    1708 calls)
                                        0.00s GPU  (    1708 calls)
     add_vuspsi   :      0.35s CPU      0.09s WALL (    1708 calls)

     General routines
     calbec       :      0.06s CPU      0.05s WALL (    2212 calls)
     fft          :      0.26s CPU      0.22s WALL (      90 calls)
     ffts         :      0.00s CPU      0.00s WALL (      14 calls)
     fftw         :    432.13s CPU    133.93s WALL (   31106 calls)
     interpolate  :      0.00s CPU      0.01s WALL (       7 calls)

     Parallel routines

     PWSCF        :   7m22.93s CPU   2m17.07s WALL


   This run was terminated on:   0:21:42   7Mar2026            

=------------------------------------------------------------------------------=
   JOB DONE.
=------------------------------------------------------------------------------=
