LAMMPS (7 Feb 2024 - Update 1)
OMP_NUM_THREADS environment is not set. Defaulting to 1 thread. (src/comm.cpp:98)
  using 1 OpenMP thread(s) per MPI task
# ============================================================
# SPC/E Water — Density at 298 K, 1 bar
# NPT MD with SHAKE constraints, PPPM electrostatics
# ============================================================

units           real
dimension       3
boundary        p p p
atom_style      full

# ── Read initial configuration ──────────────────────────────
read_data       water.data
Reading data file ...
  orthogonal box = (0 0 0) to (18.644353 18.644353 18.644353)
  1 by 1 by 1 MPI processor grid
  reading atoms ...
  648 atoms
  scanning bonds ...
  2 = max bonds/atom
  scanning angles ...
  1 = max angles/atom
  reading bonds ...
  432 bonds
  reading angles ...
  216 angles
Finding 1-2 1-3 1-4 neighbors ...
  special bond factors lj:    0        0        0       
  special bond factors coul:  0        0        0       
     2 = max # of 1-2 neighbors
     1 = max # of 1-3 neighbors
     1 = max # of 1-4 neighbors
     2 = max # of special neighbors
  special bonds CPU = 0.000 seconds
  read_data CPU = 0.003 seconds

# ── SPC/E force field ───────────────────────────────────────
pair_style      lj/cut/coul/long 9.0 9.0
pair_coeff      1 1  0.15535 3.1660   # O-O: eps(kcal/mol), sigma(Å)
pair_coeff      1 2  0.0     0.0
pair_coeff      2 2  0.0     0.0

bond_style      harmonic
bond_coeff      1  1000.0  1.000      # O-H: stiff spring (SHAKE handles geometry)

angle_style     harmonic
angle_coeff     1  100.0  109.47      # H-O-H

kspace_style    pppm  1.0e-5

# ── Neighbor list ────────────────────────────────────────────
neighbor        2.0 bin
neigh_modify    delay 0 every 1 check yes

# ── SHAKE constraints (rigid SPC/E geometry) ─────────────────
fix             shk all shake 1.0e-4 200 0 b 1 a 1
Finding SHAKE clusters ...
       0 = # of size 2 clusters
       0 = # of size 3 clusters
       0 = # of size 4 clusters
     216 = # of frozen angles
  find clusters CPU = 0.000 seconds

# ── Variable for density (g/cm³) ─────────────────────────────
# In LAMMPS real units: mass [g/mol], vol [Å³]
# density = total_mass_gmol / (vol_A3 * 6.022e23 * 1e-24)
variable        rho equal mass(all)/(vol*6.02214076e-1)
# Note: mass(all) gives sum of masses in g/mol
# vol in Å³; 1 Å³ = 1e-24 cm³; 1 mol = 6.022e23 molecules
# rho [g/cm³] = mass[g/mol] / (NA * vol[cm³])
#             = mass[g/mol] / (6.022e23 * vol[Å³] * 1e-24)
#             = mass[g/mol] / (vol[Å³] * 6.022e-1)

thermo_style    custom step temp press vol v_rho etotal
thermo          500

# ── Step 1: Energy minimization ──────────────────────────────
min_style       cg
minimize        1.0e-4 1.0e-6 2000 20000
PPPM initialization ...
  using 12-bit tables for long-range coulomb (src/kspace.cpp:342)
  G vector (1/distance) = 0.33882881
  grid = 18 18 18
  stencil order = 5
  estimated absolute RMS force accuracy = 0.003252483
  estimated relative force accuracy = 9.794756e-06
  using double precision FFTW3
  3d grid and FFT values/proc = 15625 5832
Generated 0 of 1 mixed pair_coeff terms from geometric mixing rule
WARNING: Using fix shake with minimization.
  Substituting constraints with harmonic restraint forces using kbond=1987 (src/RIGID/fix_shake.cpp:360)
Neighbor list info ...
  update: every = 1 steps, delay = 0 steps, check = yes
  max neighbors/atom: 2000, page size: 100000
  master list distance cutoff = 11
  ghost atom cutoff = 11
  binsize = 5.5, bins = 4 4 4
  1 neighbor lists, perpetual/occasional/extra = 1 0 0
  (1) pair lj/cut/coul/long, perpetual
      attributes: half, newton on
      pair build: half/bin/newton
      stencil: half/bin/3d
      bin: standard
Per MPI rank memory allocation (min/avg/max) = 10.91 | 10.91 | 10.91 Mbytes
   Step          Temp          Press          Volume         v_rho          TotEng    
         0   0              8547.3167      6480.9989      0.99702215    -220.59255    
       150   0             -19846175       6480.9989      0.99702215     5206501.4    
Loop time of 0.574725 on 1 procs for 150 steps with 648 atoms

100.0% CPU use with 1 MPI tasks x 1 OpenMP threads

Minimization stats:
  Stopping criterion = linesearch alpha is zero
  Energy initial, next-to-last, final = 
     -220.592545563898  -2674.49473945885   5206501.41517665
  Force two-norm initial, final = 413.254 352311.33
  Force max component initial, final = 41.932951 129081.24
  Final line search alpha, max atom move = 3.2198569e-13 4.1562311e-08
  Iterations, force evaluations = 150 356

MPI task timing breakdown:
Section |  min time  |  avg time  |  max time  |%varavg| %total
---------------------------------------------------------------
Pair    | 0.46067    | 0.46067    | 0.46067    |   0.0 | 80.16
Bond    | 2.1988e-05 | 2.1988e-05 | 2.1988e-05 |   0.0 |  0.00
Kspace  | 0.10062    | 0.10062    | 0.10062    |   0.0 | 17.51
Neigh   | 0.0062081  | 0.0062081  | 0.0062081  |   0.0 |  1.08
Comm    | 0.0036352  | 0.0036352  | 0.0036352  |   0.0 |  0.63
Output  | 0          | 0          | 0          |   0.0 |  0.00
Modify  | 0.0013001  | 0.0013001  | 0.0013001  |   0.0 |  0.23
Other   |            | 0.002268   |            |       |  0.39

Nlocal:            648 ave         648 max         648 min
Histogram: 1 0 0 0 0 0 0 0 0 0
Nghost:           6255 ave        6255 max        6255 min
Histogram: 1 0 0 0 0 0 0 0 0 0
Neighs:         181679 ave      181679 max      181679 min
Histogram: 1 0 0 0 0 0 0 0 0 0

Total # of neighbors = 181679
Ave neighs/atom = 280.36883
Ave special neighs/atom = 2
Neighbor list builds = 3
Dangerous builds = 0

# ── Step 2: NVT equilibration at 298 K (10 ps) ───────────────
reset_timestep  0
timestep        1.0

velocity        all create 600.0 12345 dist gaussian
fix             nvt1 all nvt temp 600.0 298.0 100.0
run             5000
PPPM initialization ...
  using 12-bit tables for long-range coulomb (src/kspace.cpp:342)
  G vector (1/distance) = 0.33882881
  grid = 18 18 18
  stencil order = 5
  estimated absolute RMS force accuracy = 0.003252483
  estimated relative force accuracy = 9.794756e-06
  using double precision FFTW3
  3d grid and FFT values/proc = 15625 5832
Generated 0 of 1 mixed pair_coeff terms from geometric mixing rule
Per MPI rank memory allocation (min/avg/max) = 9.788 | 9.788 | 9.788 Mbytes
   Step          Temp          Press          Volume         v_rho          TotEng    
         0   600           -2967.4136      6480.9989      0.99702215    -1971.4526    
       500   494.76099      4230.2749      6480.9989      0.99702215    -1354.2403    
      1000   534.33837      4446.9922      6480.9989      0.99702215    -1221.197     
      1500   518.21284      2828.3402      6480.9989      0.99702215    -1246.7441    
      2000   475.05365      4078.7573      6480.9989      0.99702215    -1384.9238    
      2500   468.65166      1570.5799      6480.9989      0.99702215    -1442.6978    
      3000   437.13238      1101.1985      6480.9989      0.99702215    -1528.6276    
      3500   381.99577      1038.7159      6480.9989      0.99702215    -1647.8879    
      4000   356.87256      1674.2493      6480.9989      0.99702215    -1743.2891    
      4500   343.04698      970.03119      6480.9989      0.99702215    -1828.077     
      5000   302.9128       147.21478      6480.9989      0.99702215    -1936.0242    
Loop time of 7.18845 on 1 procs for 5000 steps with 648 atoms

Performance: 60.096 ns/day, 0.399 hours/ns, 695.561 timesteps/s, 450.723 katom-step/s
100.0% CPU use with 1 MPI tasks x 1 OpenMP threads

MPI task timing breakdown:
Section |  min time  |  avg time  |  max time  |%varavg| %total
---------------------------------------------------------------
Pair    | 4.9752     | 4.9752     | 4.9752     |   0.0 | 69.21
Bond    | 0.00033048 | 0.00033048 | 0.00033048 |   0.0 |  0.00
Kspace  | 1.4325     | 1.4325     | 1.4325     |   0.0 | 19.93
Neigh   | 0.57467    | 0.57467    | 0.57467    |   0.0 |  7.99
Comm    | 0.05931    | 0.05931    | 0.05931    |   0.0 |  0.83
Output  | 0.00019188 | 0.00019188 | 0.00019188 |   0.0 |  0.00
Modify  | 0.13175    | 0.13175    | 0.13175    |   0.0 |  1.83
Other   |            | 0.01451    |            |       |  0.20

Nlocal:            648 ave         648 max         648 min
Histogram: 1 0 0 0 0 0 0 0 0 0
Nghost:           6074 ave        6074 max        6074 min
Histogram: 1 0 0 0 0 0 0 0 0 0
Neighs:         180168 ave      180168 max      180168 min
Histogram: 1 0 0 0 0 0 0 0 0 0

Total # of neighbors = 180168
Ave neighs/atom = 278.03704
Ave special neighs/atom = 2
Neighbor list builds = 250
Dangerous builds = 0
unfix           nvt1

fix             nvt2 all nvt temp 298.0 298.0 100.0
run             5000
PPPM initialization ...
  using 12-bit tables for long-range coulomb (src/kspace.cpp:342)
  G vector (1/distance) = 0.33882881
  grid = 18 18 18
  stencil order = 5
  estimated absolute RMS force accuracy = 0.003252483
  estimated relative force accuracy = 9.794756e-06
  using double precision FFTW3
  3d grid and FFT values/proc = 15625 5832
Generated 0 of 1 mixed pair_coeff terms from geometric mixing rule
Per MPI rank memory allocation (min/avg/max) = 9.788 | 9.788 | 9.788 Mbytes
   Step          Temp          Press          Volume         v_rho          TotEng    
      5000   302.9128       147.36382      6480.9989      0.99702215    -1936.0242    
      5500   307.82451      651.7952       6480.9989      0.99702215    -1970.9103    
      6000   306.65676     -1065.7374      6480.9989      0.99702215    -1987.1376    
      6500   307.4469       86.879994      6480.9989      0.99702215    -2011.7349    
      7000   285.3847       1705.3281      6480.9989      0.99702215    -2027.5211    
      7500   279.172        1419.7684      6480.9989      0.99702215    -2077.6482    
      8000   280.42636     -1088.6173      6480.9989      0.99702215    -2071.8046    
      8500   305.94782     -1254.178       6480.9989      0.99702215    -2046.6281    
      9000   304.69107      1558.115       6480.9989      0.99702215    -2021.8117    
      9500   308.00002     -502.06536      6480.9989      0.99702215    -2017.744     
     10000   293.741        1591.4409      6480.9989      0.99702215    -2072.5412    
Loop time of 6.89671 on 1 procs for 5000 steps with 648 atoms

Performance: 62.639 ns/day, 0.383 hours/ns, 724.983 timesteps/s, 469.789 katom-step/s
100.0% CPU use with 1 MPI tasks x 1 OpenMP threads

MPI task timing breakdown:
Section |  min time  |  avg time  |  max time  |%varavg| %total
---------------------------------------------------------------
Pair    | 4.8738     | 4.8738     | 4.8738     |   0.0 | 70.67
Bond    | 0.00030167 | 0.00030167 | 0.00030167 |   0.0 |  0.00
Kspace  | 1.3979     | 1.3979     | 1.3979     |   0.0 | 20.27
Neigh   | 0.42357    | 0.42357    | 0.42357    |   0.0 |  6.14
Comm    | 0.054637   | 0.054637   | 0.054637   |   0.0 |  0.79
Output  | 0.00019994 | 0.00019994 | 0.00019994 |   0.0 |  0.00
Modify  | 0.13223    | 0.13223    | 0.13223    |   0.0 |  1.92
Other   |            | 0.0141     |            |       |  0.20

Nlocal:            648 ave         648 max         648 min
Histogram: 1 0 0 0 0 0 0 0 0 0
Nghost:           6061 ave        6061 max        6061 min
Histogram: 1 0 0 0 0 0 0 0 0 0
Neighs:         180481 ave      180481 max      180481 min
Histogram: 1 0 0 0 0 0 0 0 0 0

Total # of neighbors = 180481
Ave neighs/atom = 278.52006
Ave special neighs/atom = 2
Neighbor list builds = 190
Dangerous builds = 0
unfix           nvt2

# ── Step 3: NPT equilibration at 298 K, 1 atm (100 ps) ──────
fix             npt_eq all npt temp 298.0 298.0 100.0 iso 1.0 1.0 1000.0
run             100000
PPPM initialization ...
  using 12-bit tables for long-range coulomb (src/kspace.cpp:342)
  G vector (1/distance) = 0.33882881
  grid = 18 18 18
  stencil order = 5
  estimated absolute RMS force accuracy = 0.003252483
  estimated relative force accuracy = 9.794756e-06
  using double precision FFTW3
  3d grid and FFT values/proc = 15625 5832
Generated 0 of 1 mixed pair_coeff terms from geometric mixing rule
Per MPI rank memory allocation (min/avg/max) = 9.788 | 9.788 | 9.788 Mbytes
   Step          Temp          Press          Volume         v_rho          TotEng    
     10000   293.741        1592.6746      6480.9989      0.99702215    -2072.5412    
     10500   288.55141     -1102.3405      6579.6833      0.98206847    -2000.6277    
     11000   295.32042     -61.029888      6442.111       1.0030407     -2041.997     
     11500   307.31718     -1398.7245      6620.5539      0.97600587    -2029.9582    
     12000   298.29531      283.51031      6475.3743      0.99788818    -2115.723     
     12500   318.0307      -619.40914      6695.9848      0.96501108    -2022.0305    
     13000   295.95246     -262.35862      6540.7832      0.98790914    -2052.1505    
     13500   295.96661      112.68207      6362.1834      1.0156418     -2047.421     
     14000   276.2433       534.99422      6458.7558      1.0004558     -2019.9892    
     14500   303.98114      503.61726      6489.0598      0.99578363    -2032.6635    
     15000   310.3095      -152.64327      6594.947       0.97979552    -1999.9988    
     15500   283.9112      -243.05029      6464.8792      0.99950815    -2048.8609    
     16000   274.55604     -24.185579      6483.97        0.9965653     -2064.2425    
     16500   301.75213      724.17952      6542.9582      0.98758074    -1994.3206    
     17000   302.82494     -625.37968      6639.4008      0.97323535    -1974.8455    
     17500   282.13195      144.51176      6433.963       1.0043109     -2024.5752    
     18000   301.92649      418.58728      6572.7824      0.98309957    -2008.3449    
     18500   270.66608     -572.85131      6647.9775      0.97197976    -2069.7534    
     19000   280.62636     -917.09418      6627.1368      0.97503638    -2054.7038    
     19500   298.78789     -498.58881      6527.7366      0.98988362    -2041.4868    
     20000   293.60644     -117.11798      6475.3576      0.99789075    -2022.9797    
     20500   296.21468      1546.4359      6407.7021      1.0084269     -2024.0391    
     21000   301.27477     -1379.3633      6506.607       0.99309817    -1967.9883    
     21500   289.13674      684.22038      6563.93        0.98442541    -1969.892     
     22000   308.5181       1827.3136      6315.8157      1.0230982     -2006.7841    
     22500   303.56449      239.02376      6440.1931      1.0033394     -1982.1702    
     23000   290.77381      128.85744      6512.599       0.99218446    -2033.0033    
     23500   295.18884     -579.60904      6634.0322      0.97402293    -2039.5095    
     24000   298.522        541.3372       6449.2189      1.0019352     -2033.6497    
     24500   285.52576     -1291.2106      6614.9819      0.976828      -2005.8238    
     25000   309.11455      637.88227      6358.6706      1.0162029     -2020.3823    
     25500   299.14079     -831.18823      6676.9503      0.96776211    -2006.278     
     26000   310.29364      388.81297      6396.0964      1.0102567     -2030.4639    
     26500   294.78697     -833.86592      6523.4198      0.99053865    -2054.0144    
     27000   308.96065     -299.02763      6699.3228      0.96453025    -1986.4068    
     27500   310.69788      455.63731      6593.9681      0.97994097    -2049.8466    
     28000   298.13784     -814.53137      6714.1139      0.96240541    -2036.3409    
     28500   302.94234      1129.7656      6529.9339      0.98955052    -2045.7839    
     29000   315.85332     -927.51429      6800.4769      0.9501833     -1969.6348    
     29500   280.8726      -262.7967       6487.5991      0.99600783    -2036.4094    
     30000   295.72153     -1317.382       6651.7194      0.97143297    -2004.2129    
     30500   290.89911     -1.8060782      6549.5286      0.98659001    -2008.5977    
     31000   294.82907     -1295.9246      6540.1411      0.98800613    -1993.3748    
     31500   305.62488      375.05091      6282.044       1.0285982     -2036.6409    
     32000   290.55835     -382.99152      6445.3675      1.0025339     -2031.4059    
     32500   311.16771      507.25779      6402.8929      1.0091844     -2017.9275    
     33000   308.58394     -511.99853      6467.0102      0.99917881    -1984.1144    
     33500   314.96235     -820.51027      6441.0995      1.0031982     -1969.7596    
     34000   263.5497       2118.2424      6377.7125      1.0131688     -2048.8979    
     34500   302.41196      61.347426      6597.5085      0.97941511    -2009.2368    
     35000   288.62077      1227.9826      6564.4058      0.98435406    -2020.8184    
     35500   302.81136     -1518.2582      6631.8769      0.97433948    -2006.1299    
     36000   307.96168     -485.09429      6526.1344      0.99012663    -2013.6302    
     36500   291.21279      1104.0276      6555.5853      0.9856785     -2037.1188    
     37000   303.7836      -1104.69        6681.7005      0.9670741     -1998.7107    
     37500   295.75875     -348.33809      6526.4912      0.99007251    -2025.3385    
     38000   310.753        1373.8561      6472.8523      0.99827699    -1999.1652    
     38500   295.04293      261.06298      6616.659       0.9765804     -2013.7351    
     39000   293.50063      49.790975      6576.8566      0.98249055    -2049.1058    
     39500   289.64596     -75.862432      6596.749       0.97952787    -2079.9204    
     40000   298.90351      667.05504      6378.8145      1.0129938     -2030.7331    
     40500   316.91127      546.19218      6582.3242      0.98167445    -2003.1294    
     41000   300.90792      729.40852      6599.6244      0.9791011     -2029.9518    
     41500   312.92102      559.5676       6436.8464      1.0038611     -1994.6587    
     42000   295.49609      288.68526      6585.0103      0.98127401    -1992.8969    
     42500   287.57109      867.23311      6583.9105      0.98143793    -2018.4711    
     43000   285.33612     -1404.05        6710.3222      0.96294922    -2012.1311    
     43500   316.2666       1182.9051      6585.273       0.98123488    -1975.9697    
     44000   310.3715       1103.5208      6407.1276      1.0085174     -1993.7138    
     44500   308.48437     -615.47184      6497.7574      0.99445072    -2019.7733    
     45000   297.62197      643.64483      6404.1708      1.008983      -2053.2364    
     45500   304.06839     -362.6987       6562.8407      0.98458881    -2005.0454    
     46000   301.04274      362.31345      6529.4438      0.9896248     -1998.7014    
     46500   292.28419     -351.46437      6445.2424      1.0025534     -2007.3206    
     47000   305.53859     -118.65487      6495.7205      0.99476255    -2025.3075    
     47500   309.67386     -1882.8526      6802.2051      0.94994189    -1993.8864    
     48000   288.80917      1697.7648      6397.3352      1.0100611     -2008.2564    
     48500   279.80084     -873.38978      6544.3353      0.98737293    -2004.514     
     49000   296.80541      870.27336      6273.2063      1.0300473     -1988.7388    
     49500   316.77534     -165.17704      6598.9648      0.97919897    -1985.4588    
     50000   279.92608      277.27862      6631.0053      0.97446756    -2021.4196    
     50500   314.34632     -672.97093      6687.5025      0.96623508    -1966.379     
     51000   316.69206      689.31135      6492.9888      0.99518107    -1992.1201    
     51500   301.46326      2418.2723      6471.1754      0.99853568    -1986.7311    
     52000   308.23225      574.78502      6595.5676      0.97970332    -1979.2963    
     52500   321.50689      247.63697      6606.0305      0.97815164    -1960.4697    
     53000   294.17784     -252.82765      6666.7354      0.96924493    -2009.1445    
     53500   287.14071     -792.40561      6486.5978      0.99616158    -2006.2657    
     54000   302.34122     -1022.2245      6630.4501      0.97454915    -1961.7513    
     54500   292.17657     -934.78073      6651.7451      0.97142921    -2002.3836    
     55000   294.87038     -431.05695      6453.1499      1.0013249     -2032.2425    
     55500   320.81231     -1344.5165      6511.4658      0.99235713    -1992.1577    
     56000   295.08271      439.20712      6449.3745      1.001911      -2052.0484    
     56500   295.13483     -425.34204      6572.2388      0.98318088    -2023.5828    
     57000   319.37264     -799.38754      6651.6762      0.97143927    -1972.5779    
     57500   299.62644      559.46939      6405.5151      1.0087713     -2026.371     
     58000   288.52272     -517.27506      6616.5414      0.97659776    -2018.3901    
     58500   295.26579     -1186.966       6726.9629      0.96056714    -2033.3698    
     59000   308.23756     -528.39629      6513.5638      0.99203749    -2005.3041    
     59500   310.71018      1546.6987      6419.5053      1.0065728     -1968.7632    
     60000   289.24835      464.65617      6509.1172      0.9927152     -2054.2       
     60500   303.39583      1590.6715      6624.9169      0.97536311    -2052.1037    
     61000   311.82268      1208.3282      6481.0872      0.99700858    -2037.9957    
     61500   289.95065      1137.436       6493.394       0.99511897    -2044.7893    
     62000   312.12006     -211.55168      6606.7028      0.9780521     -2002.5463    
     62500   312.96916     -285.03944      6699.252       0.96454044    -1999.2964    
     63000   300.01702     -53.213431      6696.144       0.96498814    -2030.8608    
     63500   268.51924     -383.17229      6436.1362      1.0039718     -2112.104     
     64000   306.42089      585.70294      6544.243       0.98738686    -2049.1931    
     64500   292.72175     -667.85721      6603.5388      0.97852072    -2027.0036    
     65000   287.70895      1333.5024      6486.4527      0.99618386    -2048.5851    
     65500   313.74806     -201.95848      6674.4001      0.96813187    -1958.6308    
     66000   300.80617      666.23586      6613.9045      0.97698712    -2028.4763    
     66500   295.32515      405.19705      6616.4051      0.97661787    -2044.8884    
     67000   274.73602      280.38816      6679.4457      0.96740056    -2040.8666    
     67500   293.06627      1405.3964      6440.6043      1.0032753     -2055.1064    
     68000   304.93036     -106.20508      6606.9487      0.97801569    -2000.396     
     68500   280.74345     -259.93181      6571.0194      0.98336333    -2063.1844    
     69000   304.91551      1361.5347      6319.391       1.0225193     -2012.9119    
     69500   314.6025      -1592.0305      6531.8043      0.98926716    -1979.0095    
     70000   295.97106      38.340336      6370.1322      1.0143745     -2031.7732    
     70500   286.28052      1812.2407      6320.55        1.0223318     -2041.5597    
     71000   305.99199     -796.10586      6575.9419      0.98262721    -2013.1573    
     71500   291.44842     -876.45781      6624.3668      0.9754441     -2054.7578    
     72000   281.16675     -774.68186      6699.2803      0.96453637    -2055.4343    
     72500   312.50839     -975.31546      6532.9148      0.989099      -1980.455     
     73000   297.36688      1221.6282      6536.3837      0.98857408    -2043.8384    
     73500   302.05917     -875.89451      6644.451       0.97249563    -2017.1661    
     74000   296.71075      1320.565       6553.5707      0.9859815     -2059.7227    
     74500   293.61056     -1183.9884      6664.6343      0.96955049    -1986.2303    
     75000   269.49739      803.11805      6686.129       0.96643357    -1984.955     
     75500   296.98958      545.27747      6681.3342      0.96712712    -2031.5453    
     76000   309.0826      -1911.4385      6702.8043      0.96402926    -2025.0223    
     76500   298.56677     -51.698465      6528.3652      0.98978831    -2004.9698    
     77000   305.37001     -473.16234      6539.5134      0.98810097    -2023.3406    
     77500   269.88286     -114.78878      6419.3284      1.0066006     -2074.8511    
     78000   300.86792      520.9741       6581.1317      0.98185233    -1979.0864    
     78500   295.93706     -921.54016      6479.9693      0.99718057    -2011.7804    
     79000   302.20116      624.01808      6509.9857      0.99258274    -2037.2074    
     79500   306.81107     -850.35625      6658.1231      0.97049865    -1978.8717    
     80000   304.90127      130.90095      6403.6106      1.0090713     -2058.5467    
     80500   314.10624     -272.3312       6496.5128      0.99464124    -2016.0313    
     81000   299.52749      1295.7285      6552.7616      0.98610325    -1991.6119    
     81500   283.29287     -647.92581      6525.0945      0.99028443    -2040.6361    
     82000   284.36865     -91.135588      6472.9559      0.99826102    -2046.8247    
     82500   298.92886     -160.61018      6474.561       0.99801353    -2022.1757    
     83000   303.11533     -436.7896       6413.767       1.0074734     -1987.8198    
     83500   283.1926      -661.30515      6478.3732      0.99742625    -2019.5155    
     84000   280.90822     -1485.0721      6583.8108      0.9814528     -2024.9884    
     84500   302.90334      161.61704      6365.0006      1.0151923     -2012.136     
     85000   299.48731     -1054.7792      6536.0331      0.98862711    -1997.6308    
     85500   293.08824     -309.94639      6503.5058      0.99357173    -2046.2468    
     86000   283.47531     -560.78779      6647.9043      0.97199046    -2023.1284    
     86500   276.9861       917.35411      6580.7888      0.98190349    -2013.1923    
     87000   299.48455      1076.9739      6520.6298      0.99096248    -1999.5756    
     87500   297.70641     -729.23187      6591.636       0.98028767    -1987.8       
     88000   297.66894     -255.81486      6464.2111      0.99961146    -2040.5573    
     88500   294.03736     -525.67428      6501.3759      0.99389724    -2046.6128    
     89000   299.15229      832.57876      6521.383       0.99084803    -1994.1491    
     89500   312.67778     -456.35406      6561.6851      0.98476221    -1978.5066    
     90000   315.36877     -1030.682       6563.6386      0.98446912    -2032.6488    
     90500   297.47544     -732.45671      6679.8994      0.96733486    -2025.8497    
     91000   283.90077      1453.5289      6273.453       1.0300068     -2061.407     
     91500   298.01731     -433.73769      6447.4067      1.0022168     -2043.5479    
     92000   295.10481     -15.909454      6616.2046      0.97664748    -2045.8385    
     92500   303.75634      237.78403      6612.3998      0.97720944    -2045.8916    
     93000   317.04089      10.462461      6692.0342      0.96558076    -2017.1452    
     93500   282.60839     -608.66005      6718.8455      0.96172765    -2014.1415    
     94000   284.39101     -786.2577       6759.5643      0.95593431    -2022.796     
     94500   286.28168     -1044.2515      6641.3026      0.97295665    -2043.0399    
     95000   283.83782     -1070.3024      6459.3455      1.0003644     -2040.701     
     95500   294.55716     -765.23792      6504.8224      0.99337063    -2048.8301    
     96000   319.58532      942.12887      6381.29        1.0126008     -1988.8722    
     96500   308.99056      918.83686      6575.2036      0.98273756    -1989.0763    
     97000   306.75538      178.41507      6668.968       0.96892046    -2009.6778    
     97500   289.99759     -734.64755      6716.823       0.96201724    -2014.8125    
     98000   285.05104     -327.37271      6575.6405      0.98267225    -2016.1928    
     98500   279.57141      1844.1868      6386.395       1.0117914     -2036.0294    
     99000   294.89867     -187.55692      6480.6585      0.99707453    -2038.9081    
     99500   301.66731     -359.50519      6438.2005      1.0036499     -1992.5554    
    100000   301.93885      1210.4358      6390.0715      1.0112093     -2002.6843    
    100500   300.3961      -691.66578      6589.9978      0.98053137    -1979.9393    
    101000   286.32859     -694.75635      6506.6793      0.99308713    -2077.5466    
    101500   294.12656     -566.3773       6473.5163      0.99817459    -2028.8239    
    102000   285.72427      994.9874       6513.9953      0.99197179    -2000.9524    
    102500   284.77828     -477.16098      6610.5485      0.97748311    -2034.5724    
    103000   302.96712      1652.0557      6562.8528      0.98458699    -1991.9167    
    103500   289.81963     -850.59699      6592.0591      0.98022475    -2016.1031    
    104000   303.60337      1106.4305      6550.6179      0.98642595    -2002.3615    
    104500   275.72783     -739.62636      6570.0857      0.98350308    -2044.7847    
    105000   296.65149      5.8171559      6459.4019      1.0003557     -2026.3164    
    105500   313.47374     -363.44576      6514.5964      0.99188024    -1976.6636    
    106000   284.36678     -446.23035      6480.2655      0.99713499    -2024.9912    
    106500   292.58673     -1516.4949      6467.1016      0.99916467    -2019.1825    
    107000   297.42927      661.12869      6530.2638      0.98950053    -2045.664     
    107500   289.69745     -287.57575      6625.264       0.97531201    -2035.9334    
    108000   315.96672      1709.117       6430.1273      1.00491       -1982.0729    
    108500   315.86469      275.85054      6533.997       0.98893518    -2004.1244    
    109000   294.84364     -219.57073      6431.3         1.0047268     -1986.9785    
    109500   303.76332     -93.073769      6414.3976      1.0073743     -1993.8685    
    110000   284.0557      -661.92334      6433.9131      1.0043187     -2042.0913    
Loop time of 162.433 on 1 procs for 100000 steps with 648 atoms

Performance: 53.191 ns/day, 0.451 hours/ns, 615.637 timesteps/s, 398.933 katom-step/s
100.0% CPU use with 1 MPI tasks x 1 OpenMP threads

MPI task timing breakdown:
Section |  min time  |  avg time  |  max time  |%varavg| %total
---------------------------------------------------------------
Pair    | 98.024     | 98.024     | 98.024     |   0.0 | 60.35
Bond    | 0.0068676  | 0.0068676  | 0.0068676  |   0.0 |  0.00
Kspace  | 29.453     | 29.453     | 29.453     |   0.0 | 18.13
Neigh   | 8.676      | 8.676      | 8.676      |   0.0 |  5.34
Comm    | 1.093      | 1.093      | 1.093      |   0.0 |  0.67
Output  | 0.0037984  | 0.0037984  | 0.0037984  |   0.0 |  0.00
Modify  | 24.876     | 24.876     | 24.876     |   0.0 | 15.31
Other   |            | 0.3013     |            |       |  0.19

Nlocal:            648 ave         648 max         648 min
Histogram: 1 0 0 0 0 0 0 0 0 0
Nghost:           6012 ave        6012 max        6012 min
Histogram: 1 0 0 0 0 0 0 0 0 0
Neighs:         181764 ave      181764 max      181764 min
Histogram: 1 0 0 0 0 0 0 0 0 0

Total # of neighbors = 181764
Ave neighs/atom = 280.5
Ave special neighs/atom = 2
Neighbor list builds = 3879
Dangerous builds = 0
unfix           npt_eq

# ── Step 4: NPT production run (200 ps) ─────────────────────
reset_timestep  0
fix             npt_prod all npt temp 298.0 298.0 100.0 iso 1.0 1.0 1000.0

# Average density every 100 steps, block-average over 500 samples
fix             avg_rho all ave/time 100 5 500 v_rho                 file density_prod.dat

thermo_style    custom step temp press vol v_rho etotal
thermo          1000

run             200000
PPPM initialization ...
  using 12-bit tables for long-range coulomb (src/kspace.cpp:342)
  G vector (1/distance) = 0.33902681
  grid = 18 18 18
  stencil order = 5
  estimated absolute RMS force accuracy = 0.0032289639
  estimated relative force accuracy = 9.723929e-06
  using double precision FFTW3
  3d grid and FFT values/proc = 15625 5832
Generated 0 of 1 mixed pair_coeff terms from geometric mixing rule
Per MPI rank memory allocation (min/avg/max) = 9.788 | 9.788 | 9.788 Mbytes
   Step          Temp          Press          Volume         v_rho          TotEng    
         0   284.0557      -524.56998      6433.9131      1.0043187     -2042.0913    
      1000   311.8444      -1278.8279      6618.609       0.97629268    -1968.7261    
      2000   301.58864     -1329.9985      6457.5624      1.0006407     -2026.7302    
      3000   298.36356      1739.4546      6556.8689      0.98548554    -2025.0456    
      4000   299.03686     -27.446913      6539.2838      0.98813566    -2001.1982    
      5000   297.9415      -1058.0846      6561.162       0.98484072    -1994.6682    
      6000   297.79729      750.37379      6505.0741      0.9933322     -2023.9928    
      7000   294.92299     -520.66662      6515.1363      0.99179806    -2029.3421    
      8000   293.37188      1113.3167      6634.2019      0.97399802    -2050.8105    
      9000   309.28691     -54.021932      6466.8267      0.99920716    -2081.9412    
     10000   303.96559     -435.46616      6457.0993      1.0007124     -2033.9957    
     11000   304.84783      374.98456      6346.2353      1.0181941     -2067.0163    
     12000   297.61627      643.86356      6384.9453      1.0120211     -2048.7822    
     13000   319.11436     -998.15714      6442.8574      1.0029245     -2045.8701    
     14000   315.65227     -765.37017      6680.1858      0.96729338    -2020.1275    
     15000   291.42781     -998.10104      6640.0609      0.97313859    -2062.5574    
     16000   307.28912      96.70792       6593.3652      0.98003058    -1995.5362    
     17000   314.80973      505.63411      6488.1085      0.99592964    -1995.1546    
     18000   288.90908     -123.53083      6363.9676      1.0153571     -2015.347     
     19000   307.97273      1070.0756      6596.2581      0.97960077    -2018.474     
     20000   293.94158     -570.36957      6480.8612      0.99704334    -2006.9412    
     21000   300.90346     -1431.3178      6547.7031      0.98686508    -2028.6389    
     22000   295.89466     -865.12076      6643.1469      0.97268653    -2009.685     
     23000   302.95979     -481.58187      6657.358       0.97061019    -1954.2215    
     24000   289.23666     -500.54964      6563.5748      0.98447869    -1993.7019    
     25000   286.09686      166.428        6434.1548      1.004281      -2043.9456    
     26000   285.08325     -431.11296      6318.9505      1.0225906     -2048.3839    
     27000   303.03086      310.51633      6533.5155      0.98900806    -1988.4583    
     28000   276.0824      -116.18816      6577.102       0.9824539     -2023.2196    
     29000   295.85994     -946.19362      6596.9624      0.97949618    -2002.9389    
     30000   301.14025      696.7017       6517.7648      0.99139808    -1990.9962    
     31000   296.98898      391.99887      6692.8112      0.96546867    -1988.2384    
     32000   286.93144     -392.44695      6751.0718      0.95713683    -2043.2465    
     33000   307.94787      521.70707      6482.3168      0.99681945    -1987.2829    
     34000   300.9789       212.77444      6560.494       0.98494099    -1978.9543    
     35000   282.33318      440.15494      6264.4638      1.0314849     -2026.8235    
     36000   301.32939     -34.301393      6551.5821      0.98628078    -1978.3903    
     37000   292.13671     -744.06871      6755.7884      0.95646861    -2039.0868    
     38000   302.94806     -474.42592      6661.6362      0.96998685    -2016.8567    
     39000   283.18189      183.10736      6543.7236      0.98746523    -2032.3176    
     40000   310.68776      1570.6296      6433.5485      1.0043757     -1969.5819    
     41000   287.74955      306.10979      6394.9955      1.0104307     -2015.6592    
     42000   296.32525      221.91418      6347.4831      1.017994      -2011.868     
     43000   313.20721      1401.2129      6461.8927      0.9999701     -1967.6701    
     44000   294.27366     -16.383866      6411.7307      1.0077933     -2048.6089    
     45000   287.6652      -719.82863      6686.7346      0.96634605    -2056.0685    
     46000   303.23639      181.44804      6503.5006      0.99357253    -1991.4057    
     47000   287.33569     -1209.1785      6543.3131      0.98752718    -1988.8014    
     48000   301.68397     -817.54215      6565.105       0.98424922    -1973.9582    
     49000   291.35365      489.9272       6615.7696      0.97671169    -1982.5642    
     50000   308.36293      1358.9352      6328.7965      1.0209997     -1990.9191    
     51000   302.61305     -11.943737      6503.8713      0.99351589    -2017.3949    
     52000   314.67548      1849.061       6545.0317      0.98726787    -1966.4944    
     53000   284.79012     -114.79891      6674.5214      0.96811428    -2063.2994    
     54000   299.73112     -873.6081       6552.5056      0.98614178    -2025.5561    
     55000   307.2302       608.95403      6432.4202      1.0045518     -1968.0926    
     56000   282.59563      44.128533      6453.3118      1.0012998     -2005.2826    
     57000   272.19289      182.83541      6421.6189      1.0062415     -2035.5997    
     58000   295.88728     -669.44593      6571.1057      0.98335041    -1984.2375    
     59000   303.68571     -318.37362      6583.5386      0.98149337    -2003.0381    
     60000   302.42246      261.44769      6504.6264      0.99340056    -1998.7982    
     61000   284.71645     -953.7964       6701.2117      0.96425837    -2016.303     
     62000   319.73751     -226.51023      6584.2573      0.98138625    -2014.525     
     63000   294.29583     -677.47291      6614.587       0.97688631    -2048.5624    
     64000   303.96844     -611.32382      6671.9131      0.96849276    -1986.3519    
     65000   287.83725     -1795.8669      6689.1493      0.96599721    -2031.9273    
     66000   299.22768      1352.5328      6427.082       1.0053862     -1994.3501    
     67000   299.09409      364.98057      6605.6233      0.97821194    -2022.4686    
     68000   306.46097      315.49731      6470.3377      0.99866495    -2017.0636    
     69000   295.87857      721.54755      6576.7742      0.98250286    -1997.9773    
     70000   271.04566      563.63365      6633.3567      0.97412212    -1973.3624    
     71000   288.21698     -18.034358      6622.4716      0.97572325    -2010.7366    
     72000   299.35751      525.26473      6481.421       0.99695723    -1999.7727    
     73000   306.75379      319.04915      6562.3465      0.98466296    -1941.536     
     74000   309.69147      566.93685      6529.8789      0.98955885    -1991.0429    
     75000   307.43359     -799.33463      6609.474       0.97764202    -1984.8109    
     76000   298.49608      541.49093      6716.2394      0.96210083    -1981.4563    
     77000   294.91478     -1528.6488      6847.9599      0.94359482    -2000.1206    
     78000   293.94984      953.75819      6462.9371      0.99980851    -2039.0584    
     79000   275.23676      438.65327      6659.144       0.97034987    -1977.6       
     80000   308.83321     -483.53918      6498.4932      0.99433812    -2016.1831    
     81000   307.53359     -735.33509      6657.2339      0.97062828    -1966.5973    
     82000   312.94253     -108.16558      6724.529       0.96091481    -1967.5318    
     83000   292.48846     -865.53546      6636.0022      0.97373377    -2014.4565    
     84000   299.94634      417.05899      6572.1794      0.98318976    -1992.6375    
     85000   284.28145     -298.61042      6476.644       0.99769256    -2027.3092    
     86000   285.14538      244.95355      6499.3961      0.99419999    -2066.4833    
     87000   304.02033     -818.6443       6710.9732      0.9628558     -1996.1951    
     88000   290.21038     -72.120213      6652.376       0.97133708    -2007.9417    
     89000   281.79522     -523.08176      6617.1412      0.97650924    -2064.809     
     90000   299.02711     -327.90466      6597.8525      0.97936405    -2006.0011    
     91000   315.01506     -692.17006      6652.9785      0.97124912    -1977.7131    
     92000   296.48059      336.27351      6492.3522      0.99527865    -2039.6745    
     93000   291.69628      125.58397      6762.39        0.95553488    -2017.1667    
     94000   300.88259     -1338.0354      6528.037       0.98983806    -2063.2903    
     95000   297.09078     -1665.8372      6686.4098      0.96639298    -2018.2479    
     96000   307.83838     -342.57332      6591.826       0.98025941    -2003.5966    
     97000   278.03109      615.00737      6617.1076      0.97651419    -2042.2206    
     98000   289.54914     -889.32411      6485.4928      0.99633131    -2022.3524    
     99000   295.94942     -461.35124      6490.9378      0.99549552    -2005.0257    
    100000   304.77293     -1100.7038      6460.106       1.0002467     -1972.5293    
    101000   278.6859      -203.17746      6768.6373      0.95465295    -1984.3773    
    102000   299.69972      90.088177      6541.1752      0.98784993    -2013.2399    
    103000   289.69313     -1212.1886      6661.2845      0.97003806    -1992.8583    
    104000   312.40183      1617.7213      6621.6965      0.97583746    -1998.9741    
    105000   287.92772      1280.8423      6496.178       0.9946925     -2035.8735    
    106000   285.5029      -363.59568      6608.5666      0.97777626    -2013.9553    
    107000   299.39122     -1264.5654      6748.3477      0.9575232     -1996.2562    
    108000   305.4475       636.8146       6554.261       0.98587767    -2035.6902    
    109000   299.68827      67.864593      6667.0434      0.96920016    -1998.0108    
    110000   295.63754     -456.96722      6693.4589      0.96537525    -2012.5764    
    111000   314.24366     -308.45582      6641.6269      0.97290914    -1969.4861    
    112000   300.13911     -527.5877       6556.0077      0.985615      -1985.3865    
    113000   302.78838     -69.620647      6384.4397      1.0121013     -1985.2728    
    114000   297.4659       45.068348      6510.5315      0.99249953    -1973.7195    
    115000   296.3485       41.883411      6587.6851      0.9808756     -2034.5634    
    116000   306.61192      721.16882      6596.318       0.97959188    -1987.5166    
    117000   291.53924     -938.21818      6554.8032      0.98579612    -2005.1547    
    118000   303.02324     -1117.6657      6580.8886      0.98188861    -2011.1621    
    119000   288.67734     -1788.126       6505.4572      0.99327369    -2033.1379    
    120000   289.61673     -344.7159       6485.1587      0.99638264    -2025.2598    
    121000   311.91095      189.31305      6566.5012      0.98403994    -1983.7856    
    122000   303.79004     -954.21317      6479.5861      0.99723954    -2016.3123    
    123000   289.08829      469.68494      6566.831       0.98399053    -2042.6897    
    124000   299.74811     -298.04974      6436.1494      1.0039698     -2007.9233    
    125000   294.62942      22.271649      6560.3517      0.98496236    -2003.8756    
    126000   310.44404     -1100.5889      6606.5938      0.97806823    -2024.5026    
    127000   305.95212      314.99403      6588.2915      0.98078532    -2026.9075    
    128000   282.58498      1148.8268      6751.1098      0.95713145    -2040.4095    
    129000   301.7023      -336.9505       6594.5461      0.97985508    -1981.6465    
    130000   304.20432      135.4422       6625.1318      0.97533146    -2024.3279    
    131000   264.69882     -945.07798      6841.4926      0.94448681    -2043.0096    
    132000   285.77581      182.59751      6533.6463      0.98898826    -2008.6927    
    133000   288.90491     -1200.2673      6620.058       0.97607899    -2022.8634    
    134000   315.09743      472.81791      6621.9189      0.97580469    -1987.2104    
    135000   292.77551      337.55826      6436.2508      1.003954      -2020.4224    
    136000   290.05039     -111.10022      6686.9909      0.966309      -2000.8265    
    137000   300.14837     -577.97853      6739.5556      0.95877234    -2034.5541    
    138000   285.23684     -1719.0881      6715.142       0.96225806    -2040.4668    
    139000   273.47502     -1841.8483      6668.6479      0.96896696    -2047.3824    
    140000   289.51726     -782.71702      6665.9235      0.96936298    -2005.1473    
    141000   296.1156       333.24018      6500.677       0.99400408    -1991.3102    
    142000   302.25154      75.626306      6572.1698      0.98319121    -1958.7952    
    143000   296.05502      135.23325      6624.2176      0.97546607    -2017.3259    
    144000   308.86883     -449.41637      6804.0548      0.94968363    -2006.9363    
    145000   281.00519      854.25259      6648.2953      0.97193328    -2076.0511    
    146000   302.67111     -243.98348      6804.4952      0.94962218    -2022.0933    
    147000   300.69045     -149.11683      6712.3856      0.96265321    -1994.0893    
    148000   304.25382     -580.58877      6496.1316      0.9946996     -2044.6543    
    149000   309.0635      -589.41685      6602.3336      0.97869933    -2013.6032    
    150000   308.2315       302.42656      6624.2155      0.97546638    -2011.9162    
    151000   292.26456      107.88747      6606.7617      0.97804337    -2011.3794    
    152000   276.85789      477.8739       6487.3471      0.99604653    -2020.8746    
    153000   298.1074       1192.7775      6350.9178      1.0174434     -2008.203     
    154000   294.39089     -437.184        6498.1217      0.99439497    -2021.0853    
    155000   287.54032     -245.16854      6561.4814      0.98479278    -2022.0681    
    156000   285.60739     -894.69936      6533.1292      0.98906654    -2028.0321    
    157000   302.53721      1436.8548      6500.599       0.99401601    -2038.5313    
    158000   283.32756      1596.678       6632.7701      0.97420827    -2010.7686    
    159000   295.69234     -116.72518      6432.4741      1.0045434     -2038.6958    
    160000   305.74425      847.49652      6536.2077      0.98860071    -1994.8559    
    161000   312.62202     -955.227        6656.6185      0.97071801    -1993.7279    
    162000   308.49059      1378.4115      6511.9749      0.99227955    -2014.779     
    163000   297.34526     -678.3168       6514.2483      0.99193325    -2028.548     
    164000   296.53764     -438.27786      6575.0283      0.98276376    -2035.9106    
    165000   292.08919      220.62036      6442.266       1.0030166     -2031.8931    
    166000   299.52539     -765.90416      6511.5118      0.99235011    -2011.7065    
    167000   282.89488      312.19051      6473.8814      0.9981183     -2051.1351    
    168000   304.91328     -546.95998      6663.2269      0.96975529    -2039.4706    
    169000   307.43845      195.75866      6659.6993      0.97026897    -2021.0493    
    170000   304.23595      65.655582      6516.6622      0.99156583    -2025.2804    
    171000   291.0131      -403.19548      6528.8731      0.98971131    -2003.019     
    172000   292.0446       1108.8524      6393.7229      1.0106318     -2051.2444    
    173000   305.59827      844.80018      6505.2086      0.99331166    -1984.0116    
    174000   293.42558      223.82968      6476.103       0.9977759     -2035.3512    
    175000   275.70814     -1792.3597      6538.963       0.98818413    -2000.836     
    176000   316.32243      152.0964       6486.736       0.99614036    -1994.3045    
    177000   302.98548      22.921191      6642.2653      0.97281562    -1969.215     
    178000   297.7373       12.070585      6450.4944      1.0017371     -2031.2973    
    179000   307.14669     -59.221395      6535.4505      0.98871524    -2000.7254    
    180000   294.01475      89.988194      6656.1203      0.97079067    -2019.5092    
    181000   299.94777      973.29973      6557.2523      0.98542793    -2024.0044    
    182000   299.95964     -211.33602      6572.3654      0.98316194    -2027.1203    
    183000   316.26992     -236.18142      6625.4574      0.97528354    -1961.6049    
    184000   313.82216     -753.38689      6687.9307      0.96617321    -2018.6039    
    185000   298.65151     -482.26139      6555.8146      0.98564402    -2009.2704    
    186000   303.74836      1051.4361      6504.5311      0.99341511    -2018.8295    
    187000   301.69364      1470.6788      6638.9577      0.97330029    -1971.1682    
    188000   291.67411      948.91843      6442.7687      1.0029383     -2045.9255    
    189000   291.87133     -141.12608      6565.4637      0.98419546    -2034.2417    
    190000   274.55382      251.21321      6574.5209      0.9828396     -2066.4417    
    191000   293.75347     -1800.4727      6748.7466      0.95746661    -2014.6949    
    192000   307.72308     -1256.2029      6553.9474      0.98592483    -2026.3403    
    193000   268.53977     -1469.5385      6668.3873      0.96900483    -2060.1249    
    194000   305.87277      218.69717      6727.4922      0.96049157    -2005.2568    
    195000   296.79407     -1279.237       6725.4918      0.96077725    -2012.817     
    196000   301.78729     -912.62716      6633.0094      0.97417312    -2012.061     
    197000   276.05377      1383.4599      6627.9485      0.97491697    -2056.148     
    198000   300.31074      609.49529      6500.8852      0.99397225    -1990.5596    
    199000   290.79962      122.39897      6521.0113      0.99090451    -2030.0107    
    200000   297.95326      993.06626      6495.169       0.99484701    -2030.7835    
Loop time of 323.541 on 1 procs for 200000 steps with 648 atoms

Performance: 53.409 ns/day, 0.449 hours/ns, 618.160 timesteps/s, 400.567 katom-step/s
100.0% CPU use with 1 MPI tasks x 1 OpenMP threads

MPI task timing breakdown:
Section |  min time  |  avg time  |  max time  |%varavg| %total
---------------------------------------------------------------
Pair    | 195.28     | 195.28     | 195.28     |   0.0 | 60.36
Bond    | 0.013567   | 0.013567   | 0.013567   |   0.0 |  0.00
Kspace  | 58.443     | 58.443     | 58.443     |   0.0 | 18.06
Neigh   | 17.277     | 17.277     | 17.277     |   0.0 |  5.34
Comm    | 2.1887     | 2.1887     | 2.1887     |   0.0 |  0.68
Output  | 0.0018737  | 0.0018737  | 0.0018737  |   0.0 |  0.00
Modify  | 49.747     | 49.747     | 49.747     |   0.0 | 15.38
Other   |            | 0.5848     |            |       |  0.18

Nlocal:            648 ave         648 max         648 min
Histogram: 1 0 0 0 0 0 0 0 0 0
Nghost:           6142 ave        6142 max        6142 min
Histogram: 1 0 0 0 0 0 0 0 0 0
Neighs:         179438 ave      179438 max      179438 min
Histogram: 1 0 0 0 0 0 0 0 0 0

Total # of neighbors = 179438
Ave neighs/atom = 276.91049
Ave special neighs/atom = 2
Neighbor list builds = 7736
Dangerous builds = 0

write_data      water_final.data
System init for write_data ...
PPPM initialization ...
  using 12-bit tables for long-range coulomb (src/kspace.cpp:342)
  G vector (1/distance) = 0.33876947
  grid = 18 18 18
  stencil order = 5
  estimated absolute RMS force accuracy = 0.0032595619
  estimated relative force accuracy = 9.8160737e-06
  using double precision FFTW3
  3d grid and FFT values/proc = 15625 5832
Generated 0 of 1 mixed pair_coeff terms from geometric mixing rule
WARNING: Not all mixed pair coeffs generated from mixing. Use write_data with 'pair ij' option to store all pair coeffs. (src/write_data.cpp:331)
print           "=== FINAL density = $(v_rho) g/cm^3 ==="
=== FINAL density = 0.99484701123592200744 g/cm^3 ===
Total wall time: 0:08:20
