LAMMPS data file via write_data, version 7 Feb 2024, timestep = 200000, units = real

648 atoms
2 atom types
432 bonds
1 bond types
216 angles
1 angle types

-0.006789075591230542 18.65114207559062 xlo xhi
-0.006789075591230542 18.65114207559062 ylo yhi
-0.006789075591230542 18.65114207559062 zlo zhi

Masses

1 15.9994
2 1.008

Pair Coeffs # lj/cut/coul/long

1 0.15535 3.166
2 0 0

Bond Coeffs # harmonic

1 1000 1

Angle Coeffs # harmonic

1 100 109.47

Atoms # full

189 189 1 -0.8476 5.708193660274493 1.7628770249246242 0.7378941462344891 0 1 0
522 153 2 0.4238 5.264771147186778 1.0359906084413757 2.9922154872887576 0 1 0
594 189 2 0.4238 4.930251536530837 2.390945609190639 0.7547528372816684 0 1 0
36 36 1 -0.8476 3.578259540119258 3.2146840480133223 0.1764459488583214 0 1 1
287 36 2 0.4238 3.6164244247066777 3.395985535195683 17.851717019439114 0 1 0
288 36 2 0.4238 2.6247428908740655 3.2096322406247393 0.47765696638363 0 1 1
108 108 1 -0.8476 5.097589569604325 6.033505374593841 0.5395281528618955 0 1 1
432 108 2 0.4238 4.7810093944122505 6.528967214616594 1.3483801018755195 0 1 1
431 108 2 0.4238 4.674355631906979 5.127803990144789 0.5166039949934994 0 1 1
278 31 2 0.4238 0.190753006643277 6.370499387519198 4.5412886890182795 0 0 -1
31 31 1 -0.8476 0.2929220438754536 6.0239736253631 3.6088572757091617 0 0 -1
357 71 2 0.4238 17.863493826690792 2.082051774634891 7.336547140465465 -1 1 0
71 71 1 -0.8476 18.55089269257939 1.582503349151242 6.809402822955182 -1 1 0
203 203 1 -0.8476 0.4245242387511447 4.090422062680374 1.6980350919550893 1 0 1
386 85 2 0.4238 0.9307884052176224 2.4199525259426697 1.8583149478104413 0 1 0
593 189 2 0.4238 6.533325271560435 2.246400051911036 1.0299742600667798 0 1 0
621 203 2 0.4238 0.22230049964607787 4.674164220670816 2.484355089576093 1 0 1
521 153 2 0.4238 5.630352934804816 18.17049948691293 3.4526708321791997 0 0 0
153 153 1 -0.8476 5.354106433111864 0.4184491287173238 3.773630124985758 0 1 0
560 172 2 0.4238 5.235854381333748 1.5607419414978585 5.23478471279269 -1 1 1
172 172 1 -0.8476 5.41859531015348 1.978290493097616 6.124844600183167 -1 1 1
85 85 1 -0.8476 1.2033349702399514 1.469138414693924 1.7112847142297938 0 1 0
277 31 2 0.4238 0.9876005514108162 6.559389995360605 3.128546914297755 0 0 -1
500 142 2 0.4238 2.3069000937382014 3.61450695737021 7.792187194084815 1 2 1
559 172 2 0.4238 6.314926260718724 1.6817508844579236 6.454393725556429 -1 1 1
405 95 2 0.4238 1.644363317641977 0.6918344130892079 7.01175260636368 1 1 0
229 7 2 0.4238 6.614332418976495 3.5091490318353404 4.873617752118943 -1 0 1
7 7 1 -0.8476 7.525399781419171 3.8217609678184514 4.60495960393904 -1 0 1
237 11 2 0.4238 10.433336121564565 1.2306510594031892 5.8485496744219025 0 1 1
11 11 1 -0.8476 9.762241822059291 1.862591869170024 5.460954097504188 0 1 1
238 11 2 0.4238 8.854051491280764 1.6446879006676969 5.818242490481988 0 1 1
232 8 2 0.4238 11.545184565318765 2.157141789342322 1.2147752230357307 -1 0 -1
230 7 2 0.4238 8.21755731171965 3.2909742565485147 5.093969527297436 -1 0 1
308 46 2 0.4238 10.818960757148082 4.8557200083302146 5.279270842952944 0 1 1
206 206 1 -0.8476 10.199786010045706 1.2222942353165367 0.7947224335260239 0 1 1
8 8 1 -0.8476 12.260229435054711 2.8558541906546884 1.2361929039429547 -1 0 -1
491 138 2 0.4238 8.515301141656163 2.7761923690824077 1.3123311757440903 0 1 2
492 138 2 0.4238 7.948639505920848 3.608873165504976 2.597641310389615 0 1 2
231 8 2 0.4238 12.068818341474216 3.550022367834065 0.5423347268771178 -1 0 -1
138 138 1 -0.8476 7.771230886333878 3.354378092332903 1.6470069516892618 0 1 2
553 169 2 0.4238 13.805147343123641 2.0591605733200242 0.8632792798209632 1 1 1
486 135 2 0.4238 10.310680243749358 5.986462776561896 1.688790583739333 -1 1 0
35 35 1 -0.8476 7.367151573357413 6.53595026305617 3.8240755801660864 -1 0 -1
286 35 2 0.4238 7.425096830774921 5.568695160862481 4.071073797063277 -1 0 -1
485 135 2 0.4238 10.139070782586094 6.258172613862205 3.289793019520149 -1 1 0
46 46 1 -0.8476 10.556585734611383 5.666366325718166 4.755860187110163 0 1 1
531 158 2 0.4238 7.006200561924632 6.29573535066165 7.2493803468273645 1 0 0
158 158 1 -0.8476 7.910680679584767 6.497766485936458 7.62494213737907 1 0 0
48 48 1 -0.8476 7.887104074535867 1.9282801460917753 7.358888330501156 0 1 1
525 155 2 0.4238 7.919491333014801 4.473086540101744 0.04329319615129634 0 1 1
75 75 1 -0.8476 10.773277983252827 5.146248690156709 0.08638928294263176 0 0 1
622 203 2 0.4238 18.457095015979505 4.311028825311543 0.949567317362033 0 0 1
358 71 2 0.4238 18.159192004776855 0.7231508796252829 6.480722468579895 -1 1 0
169 169 1 -0.8476 14.790277770442684 1.9286754157394133 0.9748121334776897 1 1 1
554 169 2 0.4238 14.996679184266084 1.7558608672071574 1.9378705015798914 1 1 1
385 85 2 0.4238 0.3881350205139648 0.8916273267562242 1.6679623643180506 0 1 0
260 22 2 0.4238 13.625194304477716 4.223058167753739 3.7337001631888938 0 1 0
22 22 1 -0.8476 13.62415450569391 4.522598067558535 2.7796446988011785 0 1 0
259 22 2 0.4238 12.951727238497481 3.9914073522541225 2.2642564938315277 0 1 0
629 207 2 0.4238 17.25062664910309 16.77086284550802 5.765022412366266 0 0 0
511 148 2 0.4238 14.369570668937229 2.2801210282889866 5.821172960721152 0 0 1
613 199 2 0.4238 14.510673221751956 6.773688978096846 1.238448143398165 1 0 0
148 148 1 -0.8476 14.603856691752867 1.4244244734428078 6.282520482820098 0 0 1
614 199 2 0.4238 14.837978354072328 6.714140931159772 18.297688938013515 1 0 -1
467 126 2 0.4238 13.317818376271967 3.876917882194156 6.399466431198059 -2 1 1
468 126 2 0.4238 14.4224682041562 4.904208161126719 5.774239638085649 -2 1 1
126 126 1 -0.8476 13.946016000741107 4.035686390404828 5.637818364485286 -2 1 1
314 49 2 0.4238 15.823663378688527 1.060362444502737 4.494428939417228 0 1 0
199 199 1 -0.8476 14.575339057999232 7.311201415002029 0.39770685804635 1 0 0
207 207 1 -0.8476 17.630282159546667 17.654333922904243 5.490636384539465 0 0 0
512 148 2 0.4238 15.252249625700244 1.6104465706053321 7.020714507691517 0 0 1
573 179 2 0.4238 14.11871281983119 18.29416583174936 6.086297658196521 -1 0 0
262 23 2 0.4238 6.210137709201364 6.811797118174023 18.24821222003454 0 1 0
555 170 2 0.4238 4.511589007004242 7.381930264642295 4.841391529088033 1 1 0
124 124 1 -0.8476 2.0824783214534075 8.110660467279283 3.210427315445303 1 1 1
170 170 1 -0.8476 4.862266080009754 7.733583658182047 3.973455865614261 1 1 0
21 21 1 -0.8476 1.6274029518234916 10.18711239147287 1.1650286694422 0 0 1
258 21 2 0.4238 0.6447453570710846 10.121132858035672 0.9918878983261548 0 0 1
257 21 2 0.4238 1.825467904362853 11.045078021331824 1.6389615803456228 0 0 1
9 9 1 -0.8476 3.0955480032196427 12.16485636838076 2.5810155787793962 1 0 1
234 9 2 0.4238 3.7871668496240205 11.465624354317331 2.7618050542822448 1 0 1
463 124 2 0.4238 1.8702448020385258 8.77423232082915 2.4930868518198883 1 1 1
464 124 2 0.4238 3.055833974734697 8.161327909203544 3.4339438328711958 1 1 1
569 177 2 0.4238 2.0223529225481154 12.871202175122715 5.429019264572339 0 0 1
177 177 1 -0.8476 1.580565871731967 12.280514084105864 4.753846206490399 0 0 1
570 177 2 0.4238 2.0947183222028314 12.31142160221028 3.89673548050182 0 0 1
233 9 2 0.4238 3.236375940829131 12.544397228740394 1.6666506078553573 1 0 1
242 13 2 0.4238 18.604630657576397 11.932987938564642 4.644164083012347 0 0 -1
122 122 1 -0.8476 18.34716553082619 7.315496084571741 6.041416143721976 -1 -1 -1
460 122 2 0.4238 18.5468208032507 8.288538061953826 5.92620340767452 -1 -1 -1
579 182 2 0.4238 1.4738604520764524 10.454716491600418 5.50700423779201 1 -2 -1
182 182 1 -0.8476 1.3424520232639408 9.46786066158554 5.600784821406638 1 -2 -1
612 198 2 0.4238 3.6068445019935895 7.718108764635459 15.928093548422211 2 0 0
611 198 2 0.4238 3.991893683479033 7.350831772604794 17.471897250609324 2 0 0
198 198 1 -0.8476 3.2681230480060717 7.323971050698414 16.782418121759953 2 0 0
285 35 2 0.4238 8.159225551523505 6.7857641900113705 3.2671562710949216 -1 0 -1
276 30 2 0.4238 8.477542432453236 8.137035111121484 18.238988288836758 1 1 1
551 168 2 0.4238 6.00021205437094 10.959893874945685 5.5088761220430476 1 0 1
185 185 1 -0.8476 5.052103973365163 10.296202049260762 2.3885621472675265 0 -1 0
586 185 2 0.4238 5.176705369441647 9.326925311259297 2.600517005628309 0 -1 0
556 170 2 0.4238 5.610610077503759 7.151283797655814 3.6558791734436964 1 1 0
135 135 1 -0.8476 9.99499023142868 6.639839467891557 2.376820900702591 -1 1 0
523 154 2 0.4238 11.125789333022986 8.186856074922776 2.211116095795634 0 0 1
502 143 2 0.4238 7.823976013079587 9.590255363151128 4.6691009226529765 -1 0 -1
143 143 1 -0.8476 7.1946009751141355 9.213941202786476 5.348969676598722 -1 0 -1
501 143 2 0.4238 6.964719254482148 8.271843228461146 5.104935634321215 -1 0 -1
387 86 2 0.4238 9.328935940600012 10.769089981738478 4.849312759642076 0 -1 -1
388 86 2 0.4238 9.261396521060348 10.731751135134854 3.21819984060345 0 -1 -1
543 164 2 0.4238 10.216566628388687 9.732315765311775 0.06443303763458644 0 0 0
86 86 1 -0.8476 9.294716276162244 10.173228731300139 4.04698775042132 0 -1 -1
137 137 1 -0.8476 6.771286536122334 10.314218641262023 0.28642853234312293 1 0 1
489 137 2 0.4238 6.832426646098611 11.312275045740048 0.2960396422331968 1 0 1
164 164 1 -0.8476 10.919409504524243 10.442060340047712 0.017301840705101768 0 0 0
490 137 2 0.4238 7.6641363708437105 9.923424576890227 0.5101384932227663 1 0 1
524 154 2 0.4238 10.646000750677695 9.399895247951955 3.193370601241867 0 0 1
154 154 1 -0.8476 11.425428676786064 8.998626336495718 2.7123068936751586 0 0 1
514 149 2 0.4238 11.45055293704912 8.104086522028497 5.681317527520671 0 -1 1
585 185 2 0.4238 5.27211519284892 10.457988420284316 1.4266012327802529 0 -1 0
30 30 1 -0.8476 9.188197422379487 8.448542782369676 0.21183454114554653 1 1 2
275 30 2 0.4238 9.45143887101901 7.695915925981848 0.8153281478600992 1 1 2
222 3 2 0.4238 9.30780130005227 13.054271619895163 5.257544941327792 -1 -1 1
3 3 1 -0.8476 9.025776879510582 12.300303243638224 5.850790883223155 -1 -1 1
297 41 2 0.4238 7.6952040631253125 11.776353199859566 2.4693038029118837 1 -1 2
513 149 2 0.4238 12.084483633503865 8.64142776301579 4.275656891915503 0 -1 1
534 159 2 0.4238 11.923835985474383 12.112633873656641 2.2945641496043114 1 0 0
41 41 1 -0.8476 8.636470803569406 12.105777955183013 2.3955257661150124 1 -1 2
149 149 1 -0.8476 12.262852756536226 8.10136004401011 5.09812833328287 0 -1 1
624 204 2 0.4238 13.557391329210107 7.49340587439355 4.30524793404756 1 1 0
623 204 2 0.4238 13.890315109673722 6.170591943897254 3.4075787529576265 1 1 0
204 204 1 -0.8476 14.28154077996274 6.980841255664277 3.84391066072249 1 1 0
150 150 1 -0.8476 13.178551887789963 10.930681497623809 2.297668050664915 0 -1 1
515 150 2 0.4238 12.619113140596266 10.109149552948264 2.187848003723973 0 -1 1
336 60 2 0.4238 14.997720127332652 9.01889637499878 0.43688440346661217 0 2 0
63 63 1 -0.8476 16.830251168853827 8.032376852799034 3.067791862128311 -2 0 0
342 63 2 0.4238 15.926462707385621 7.604488786632085 3.0627261892170283 -2 0 0
18 18 1 -0.8476 17.789460398737255 10.043431000626365 1.5559445039538733 -1 0 1
251 18 2 0.4238 17.747461271318187 9.380483683205963 2.3033960307722934 -1 0 1
341 63 2 0.4238 17.51770684960028 7.356125076925085 3.3324341718957555 -2 0 0
252 18 2 0.4238 16.89035405176508 10.116631852528611 1.1244398111776526 -1 0 1
335 60 2 0.4238 14.536993287759676 10.489030136018675 0.9781083148781378 0 2 0
60 60 1 -0.8476 15.29059912011604 9.963797005269473 0.58294275064608 0 2 0
274 29 2 0.4238 16.236394195380562 11.226721077480594 4.28876570029071 -1 1 1
29 29 1 -0.8476 15.440917912812283 10.727401366257874 3.945480892260102 -1 1 1
273 29 2 0.4238 15.689328208904506 9.771422608338101 3.7894561014398698 -1 1 1
516 150 2 0.4238 13.96779914111314 10.721743699688195 2.875059238614208 0 -1 1
13 13 1 -0.8476 17.621115989877495 11.926684860485578 4.824735603256661 0 0 -1
376 80 2 0.4238 18.11590961719081 11.714615208372399 0.9283736622157494 0 -1 1
304 44 2 0.4238 15.227458175796661 6.586940959597593 5.186498197760869 -1 0 1
379 82 2 0.4238 13.096488610290667 9.262064441452745 6.4245669387136175 -2 1 1
82 82 1 -0.8476 13.768300484803781 9.587724983166321 7.089819417348627 -2 1 1
641 213 2 0.4238 17.56315652831723 13.15344828854434 3.8689285058762297 -1 0 0
213 213 1 -0.8476 17.673539464732023 13.947890591103617 3.271748298369903 -1 0 0
598 191 2 0.4238 4.369724545853034 17.739707774523147 0.5678602485295179 1 -1 1
216 216 1 -0.8476 4.160180873310853 16.588122088023553 2.230312106661291 1 0 1
437 111 2 0.4238 4.995785478474708 14.633019481672259 4.205415950958427 1 -2 1
648 216 2 0.4238 3.42612601378162 16.980510656023256 2.7845165253240496 1 0 1
111 111 1 -0.8476 4.884870118922035 14.340353736792157 3.255683547553567 1 -2 1
438 111 2 0.4238 4.093883009103302 13.732735251019083 3.1843649669318523 1 -2 1
647 216 2 0.4238 4.385443137604461 15.67611001064922 2.5730062387372716 1 0 1
626 205 2 0.4238 18.001405798889188 15.868768065156033 2.9272577980058974 0 -1 0
642 213 2 0.4238 17.303718029460022 13.738409614869978 2.366598126205115 -1 0 0
205 205 1 -0.8476 18.24305798782632 16.839039508815226 2.938447590286419 0 -1 0
527 156 2 0.4238 1.984693640780178 18.26203637206242 4.216205851149039 2 -1 1
156 156 1 -0.8476 1.9786881679938553 18.041502544740204 3.2408721633481745 2 -1 1
528 156 2 0.4238 1.620350262504793 0.1618989555458441 2.725365585288463 2 0 1
625 205 2 0.4238 0.579493229751509 16.934365368673845 2.9842338140241016 1 -1 0
506 145 2 0.4238 4.112300070794162 12.71273517683785 6.333844827879873 1 -1 0
95 95 1 -0.8476 2.2493849990656054 18.596998045657706 6.752452364486094 1 0 0
265 25 2 0.4238 3.546083800492995 15.319345493084635 6.205992579892215 0 0 0
266 25 2 0.4238 3.76431880022914 16.812230029938178 5.581369077213684 0 0 0
25 25 1 -0.8476 4.161869369751143 15.899226645949149 5.672613291061517 0 0 0
508 146 2 0.4238 3.6351443984718683 14.04665188109337 18.538770208266605 0 -2 -1
146 146 1 -0.8476 3.9917568837046358 13.193020165413598 0.2604273871603284 0 -2 0
507 146 2 0.4238 4.975588576033051 13.137879526534899 0.09018764155986932 0 -2 0
397 91 2 0.4238 10.864971573316208 1.1295263824711363 3.9791020102754215 0 0 1
627 206 2 0.4238 9.989487214211362 0.5284724313299625 0.10600431020954915 0 1 1
628 206 2 0.4238 10.355987864458134 0.7791245018956614 1.6774163480542166 0 1 1
411 98 2 0.4238 12.501355851886919 18.41676471580729 3.5683533387382953 -1 0 0
168 168 1 -0.8476 5.620941975686548 11.763410326227683 5.967638160183721 1 0 1
552 168 2 0.4238 6.33574607663009 12.206925238374774 6.508283364908241 1 0 1
221 3 2 0.4238 8.360311575844493 12.632916665059593 6.518975797897711 -1 -1 1
545 165 2 0.4238 6.834343582224328 15.033294823609863 2.42132874282932 0 2 1
91 91 1 -0.8476 10.882837030479237 0.3873000697093876 3.3092303706386303 0 0 1
398 91 2 0.4238 10.222280474637063 18.342315384169062 3.572902060206935 0 -1 1
77 77 1 -0.8476 13.087177269260945 17.351872644474838 0.6213929330388762 0 -1 0
369 77 2 0.4238 13.356980646683413 17.816095796099425 1.464986402751503 0 -1 0
298 41 2 0.4238 8.634161626333782 13.099862719011421 2.2871885323096364 1 -1 2
546 165 2 0.4238 8.340195919380752 15.661581335540966 2.3569105152037393 0 2 1
87 87 1 -0.8476 9.220190314289411 16.92492525989578 3.474835697096839 0 -1 0
390 87 2 0.4238 9.815713931320653 16.13306796382672 3.6099682078451134 0 -1 0
389 87 2 0.4238 8.71323763652379 17.108296179016733 4.317047727747374 0 -1 0
449 117 2 0.4238 11.662316464532855 14.36209516524839 1.218705914390135 1 0 0
533 159 2 0.4238 10.331662428192391 12.349915496417248 2.020401111256111 1 0 0
159 159 1 -0.8476 11.233554893817326 12.781813649656865 2.019505465545126 1 0 0
165 165 1 -0.8476 7.799511161700744 14.825734397814953 2.2622141786114143 0 2 1
370 77 2 0.4238 12.577255759825041 16.52160037900149 0.8462818660299259 0 -1 0
412 98 2 0.4238 13.536729971000803 17.266949293828596 4.090282550660942 -1 0 0
441 113 2 0.4238 7.067889109435474 13.593089195767451 0.7631900122622893 1 1 1
32 32 1 -0.8476 10.269199602546486 14.352038779980392 4.170427067578336 -1 0 0
279 32 2 0.4238 10.75554847678393 13.835999667876028 3.4653626755099642 -1 0 0
494 139 2 0.4238 12.897717670211591 13.739800633393067 6.375840182182241 1 0 0
98 98 1 -0.8476 13.401758647920529 18.004724460793746 3.4289069368766105 -1 0 0
588 186 2 0.4238 8.846836503870682 18.57303353216945 16.734520976229987 1 -1 1
117 117 1 -0.8476 11.686404292538965 15.273035389974652 0.8069351331491366 1 0 0
50 50 1 -0.8476 17.381001470981488 0.16613748737322276 1.4731182180499587 0 1 0
49 49 1 -0.8476 15.531712067583554 0.9113998103095541 3.549695427452104 0 1 0
313 49 2 0.4238 14.67716536147915 0.3921214145151935 3.54286136708323 0 1 0
315 50 2 0.4238 16.632406392550486 0.6314358354832386 1.9453995824080934 0 1 0
330 57 2 0.4238 18.421651757654175 15.812007407317752 18.51442018351456 -1 -1 -1
57 57 1 -0.8476 0.7050510709637509 15.595769005374905 0.11549672068950656 0 -1 0
329 57 2 0.4238 0.7024066889397034 14.882997991040853 0.8168507276827686 0 -1 0
630 207 2 0.4238 17.745017642862457 17.673826316942524 4.49745807083187 0 0 0
80 80 1 -0.8476 17.753153177196253 12.621377733185936 0.713579118538317 0 -1 1
375 80 2 0.4238 16.754646015420377 12.601402906008385 0.763893622167289 0 -1 1
517 151 2 0.4238 14.383539187786106 13.015872035213667 1.28915264605143 -1 -2 0
151 151 1 -0.8476 15.11694895326439 13.60295295068073 1.6317802543872915 -1 -2 0
518 151 2 0.4238 14.815336903453685 14.058742197267769 2.4691772252064723 -1 -2 0
582 183 2 0.4238 15.03209059929978 15.32808653121471 4.642419115919931 0 -1 0
183 183 1 -0.8476 14.220642490310578 14.828996296144076 4.338432171377413 0 -1 0
581 183 2 0.4238 14.100293735598692 14.01274449713818 4.903407578277421 0 -1 0
316 50 2 0.4238 17.66528516218552 18.025968589692674 2.0043111506848996 0 0 0
280 32 2 0.4238 10.902523893481115 14.983381391765509 4.617924363346586 -1 0 0
128 128 1 -0.8476 14.076831115686023 12.568137478740374 5.821095536003219 0 0 -1
469 127 2 0.4238 18.013795562777723 14.282776712081139 5.175666568653182 0 -1 -1
472 128 2 0.4238 14.253497548362208 12.206127356277632 4.905844513655775 0 0 -1
471 128 2 0.4238 14.318235478189264 11.879093297019047 6.504388425798205 0 0 -1
470 127 2 0.4238 17.926941830755467 13.875923250393955 6.754720637372428 0 -1 -1
127 127 1 -0.8476 17.905288608694356 14.635725717935372 6.104967696098886 0 -1 -1
322 53 2 0.4238 2.449583143665523 2.300298834140351 11.679578625261616 0 0 1
321 53 2 0.4238 1.8155127755493214 2.9218274701622264 10.309125543686969 0 0 1
481 133 2 0.4238 4.473803349378579 5.8450383776763 7.244578723257184 0 1 -1
53 53 1 -0.8476 1.6010382268217762 2.5420599097385437 11.208972507307381 0 0 1
426 105 2 0.4238 0.5716832503959943 5.175929213413213 8.049519168363918 0 1 -1
187 187 1 -0.8476 4.471067054530197 1.059219371213872 11.464166230128004 1 1 -1
425 105 2 0.4238 1.1480621194042084 6.3038268381780345 9.080110724978287 0 1 -1
643 214 2 0.4238 4.400367690677011 3.1105465948087554 6.938463801402845 1 0 0
105 105 1 -0.8476 0.49692087417621345 6.129397052260367 8.34150651580435 0 1 -1
247 16 2 0.4238 4.751108251931521 2.6011168305944987 10.507301504214423 -1 0 0
16 16 1 -0.8476 4.572031266414166 3.5106393744223596 10.132272145543494 -1 0 0
459 122 2 0.4238 18.645023068188245 7.019298632391324 6.948882324670276 -1 -1 -1
644 214 2 0.4238 4.090770573452361 3.530165000188635 8.485898705668061 1 0 0
214 214 1 -0.8476 3.935131192398841 3.770903316289516 7.527896473222769 1 0 0
248 16 2 0.4238 4.477432898795164 4.167059666568063 10.880677399640364 -1 0 0
55 55 1 -0.8476 4.398985456316853 5.08682318283925 12.221162825091282 -1 2 -1
476 130 2 0.4238 6.642711093596313 4.032228905052569 9.391834721345267 1 2 0
142 142 1 -0.8476 1.3873181187366506 3.5135888064296235 8.171833809728458 1 2 1
499 142 2 0.4238 0.8877332409157939 2.81851805802509 7.654882557499335 1 2 1
325 55 2 0.4238 5.020846741761264 5.842206970515732 12.014689815469412 -1 2 -1
590 187 2 0.4238 4.090342871124741 0.70899507413525 12.319934237916653 1 1 -1
589 187 2 0.4238 4.002140094335674 0.6319226351184847 10.691203217399663 1 1 -1
129 129 1 -0.8476 2.010457417536408 5.9043125890058725 10.736132525296535 1 0 0
474 129 2 0.4238 2.9489797209578796 5.744835294662872 11.042220678123186 1 0 0
307 46 2 0.4238 10.455474862418427 6.444785296724529 5.3753660085775365 0 1 1
311 48 2 0.4238 7.63909382389929 2.601929700159351 8.055044963129381 0 1 1
637 211 2 0.4238 10.046958971029875 0.9881712087116843 8.912158629987772 0 1 -1
532 158 2 0.4238 8.225379816351385 7.381649068573558 7.279018168993451 1 0 0
226 5 2 0.4238 9.099557770744084 2.1166503057212225 10.62951404542842 -1 0 1
5 5 1 -0.8476 9.686723049501559 2.544476269825674 9.94238252699122 -1 0 1
225 5 2 0.4238 9.306536205022296 3.4330211857070903 9.685685476188878 -1 0 1
28 28 1 -0.8476 7.516476143150909 1.4790481029463738 11.229943641963516 -1 1 0
391 88 2 0.4238 10.757735931338853 4.887538989872471 13.171006886157198 0 1 0
88 88 1 -0.8476 11.742693499652365 4.7358753314373105 13.088521982965396 0 1 0
272 28 2 0.4238 6.557365376339232 1.7572542129723658 11.281468822543486 -1 1 0
455 120 2 0.4238 10.647207944769274 3.0597962778411025 6.318155488325989 0 0 0
294 39 2 0.4238 12.864352068111117 1.787141579645736 10.622774444078575 1 -1 -1
475 130 2 0.4238 7.5930139183487455 4.93948232468922 8.422143270569116 1 2 0
130 130 1 -0.8476 7.519185047243327 4.07083578209233 8.91199091592407 1 2 0
320 52 2 0.4238 9.370302724542343 6.0356891582718895 9.556445557697964 -1 -1 1
52 52 1 -0.8476 10.12758467690093 5.730576860446654 8.979055796437184 -1 -1 1
418 101 2 0.4238 8.426908524063565 5.963956728669807 11.589752079942667 0 0 1
417 101 2 0.4238 7.648754284896383 6.892238268535333 10.494647378840714 0 0 1
101 101 1 -0.8476 8.535891802529724 6.687533426846181 10.908205114708492 0 0 1
319 52 2 0.4238 9.772933640815298 5.1608098871392345 8.23774916674021 -1 -1 1
344 64 2 0.4238 13.103039978947628 17.29732096542417 8.006556493513356 0 -1 1
120 120 1 -0.8476 11.111303309312305 3.8914291702491264 6.623031990569447 0 0 0
39 39 1 -0.8476 13.139016759652822 1.3043374379706505 9.791266004763054 1 -1 -1
293 39 2 0.4238 13.17904103309058 1.9500222865730106 9.028746388832019 1 -1 -1
44 44 1 -0.8476 15.727498460837742 6.313131983512683 6.008042589662932 -1 0 1
303 44 2 0.4238 16.70742627232375 6.449390119803347 5.862707481302211 -1 0 1
602 193 2 0.4238 0.3305935811173715 1.151617135304251 10.24723730098457 0 1 -1
193 193 1 -0.8476 18.123006449329587 0.7110511622242154 10.009063076237862 -1 1 -1
571 178 2 0.4238 16.894993851144456 2.8166144199091927 12.267157088671679 0 1 -1
572 178 2 0.4238 17.625129467731128 1.474814533642552 11.6901291251147 0 1 -1
178 178 1 -0.8476 17.18246707790496 1.8845856724212744 12.48767845245896 0 1 -1
456 120 2 0.4238 11.76225853019657 3.6634969305260783 7.34708421417361 0 0 0
290 37 2 0.4238 16.975663918621187 1.2417396915251133 9.1128648018961 -1 1 -1
106 106 1 -0.8476 15.805241603641752 4.494448209872192 8.410522462669778 -1 0 0
289 37 2 0.4238 16.28776891145405 2.6643529866717035 8.701213752906233 -1 1 -1
37 37 1 -0.8476 16.402103200694903 1.7063710355133892 8.438259232628496 -1 1 -1
59 59 1 -0.8476 13.254059879117666 3.823021510941762 8.396901633557047 0 0 0
333 59 2 0.4238 12.884360327409407 4.243967167027866 9.225197400416773 0 0 0
620 202 2 0.4238 14.982330856435519 0.05169421921953619 10.197871435075399 1 0 0
427 106 2 0.4238 15.977682015860982 5.082324484271506 9.200847016896097 -1 0 0
428 106 2 0.4238 16.137502381905563 4.944401778415012 7.581612708669235 -1 0 0
334 59 2 0.4238 14.245400458561372 3.9516719353097765 8.371606103485387 0 0 0
343 64 2 0.4238 12.685046970218162 18.478472537925867 9.053766375209158 0 -1 1
619 202 2 0.4238 14.299868289240365 17.693113973066723 11.278350091042212 1 -1 0
473 129 2 0.4238 1.3727869771792 5.598200930245541 11.44296981380973 1 0 0
133 133 1 -0.8476 5.150890881699325 6.421613425235318 6.78734717098454 0 1 -1
249 17 2 0.4238 1.8847439182533412 7.522074896064657 10.296174502605625 0 0 1
17 17 1 -0.8476 1.4538907192962072 8.42440798942987 10.285814936354166 0 0 1
250 17 2 0.4238 1.2034737924891619 8.684912509005297 11.218218150210085 0 0 1
402 93 2 0.4238 5.700099061045629 7.5037586571489765 9.479917054751594 -1 0 1
482 133 2 0.4238 5.152496349229582 7.329750526929687 7.205954690807409 0 1 -1
255 20 2 0.4238 4.413239565136872 9.310008162819711 8.08563095170081 0 -1 -1
93 93 1 -0.8476 5.770913713830482 7.403737209256733 10.472352576784042 -1 0 1
401 93 2 0.4238 5.846502132806287 8.307374114514484 10.893866515599724 -1 0 1
20 20 1 -0.8476 5.277057235087595 9.01436816318859 7.677753500056569 0 -1 -1
256 20 2 0.4238 5.478062841694502 9.57882599504858 6.877171722889066 0 -1 -1
34 34 1 -0.8476 2.915150290459269 11.987135383141409 9.114022771052518 -1 1 1
283 34 2 0.4238 3.283838773195654 11.282291808405551 8.508042778132074 -1 1 1
112 112 1 -0.8476 2.6331357287808235 9.444046836888957 8.074233765957981 1 0 0
440 112 2 0.4238 2.1800686873798294 9.263108222440573 8.947125238665087 1 0 0
439 112 2 0.4238 2.0009835211621065 9.250100904678613 7.324089493816157 1 0 0
580 182 2 0.4238 1.5504058059747745 9.019811377465125 4.731328229498199 1 -2 -1
603 194 2 0.4238 18.22374295841619 9.760938815062676 12.28177121984119 -1 0 -1
568 176 2 0.4238 6.087876358311538 10.449468446307094 11.1083164831555 0 0 -1
123 123 1 -0.8476 3.553532750069479 12.065920243135984 12.045466911601531 -1 1 0
194 194 1 -0.8476 0.24915237661414313 9.293166205958475 12.842290103186327 0 0 -1
567 176 2 0.4238 4.706091272240875 10.841783337896002 11.885004474406086 0 0 -1
176 176 1 -0.8476 5.41135813120191 10.141146417944604 11.777052280616498 0 0 -1
371 78 2 0.4238 10.432906243556065 11.39065916760143 6.4839000050268725 0 -1 0
392 88 2 0.4238 12.025156083051435 4.887810368827983 12.14138016187516 0 1 0
340 62 2 0.4238 7.762803742408028 9.498492246914603 6.861624961063114 0 1 0
62 62 1 -0.8476 8.156663724428363 9.51404973068677 7.780635595347306 0 1 0
339 62 2 0.4238 9.117215458448326 9.78683702793508 7.727021706254883 0 1 0
372 78 2 0.4238 11.806513989332801 11.071938363324268 7.30737063358137 0 -1 0
78 78 1 -0.8476 11.02628425126317 10.665092194210256 6.832328803361862 0 -1 0
317 51 2 0.4238 10.691662710340731 8.633075129508294 7.373122666341461 -1 0 -1
132 132 1 -0.8476 7.643118810395 11.001747994807523 10.234084095602693 -1 0 1
480 132 2 0.4238 7.755914556646997 10.759792658456103 9.27040280170018 -1 0 1
318 51 2 0.4238 10.589469752041069 7.03233455874047 7.679180261677549 -1 0 -1
51 51 1 -0.8476 10.394189860111457 7.749867369817528 7.010629576730407 -1 0 -1
595 190 2 0.4238 9.010742076440563 8.279177569568223 11.518263628480796 1 0 -1
190 190 1 -0.8476 9.028563655457358 9.22675658475068 11.8372068800163 1 0 -1
591 188 2 0.4238 11.480519803551802 5.412113680853099 9.98813598514512 0 0 0
479 132 2 0.4238 8.12572317925017 10.336312650164006 10.80350127554754 -1 0 1
548 166 2 0.4238 7.542012086991984 12.635701312728413 11.145738763387786 0 0 1
253 19 2 0.4238 11.879911087292239 9.540873109403547 10.596742562360955 -1 1 0
393 89 2 0.4238 11.148273046246835 11.320274587800215 10.145314160448017 0 0 1
19 19 1 -0.8476 11.701246003414711 9.542602680073822 9.61286101299076 -1 1 0
254 19 2 0.4238 12.455469259510522 9.09090354043179 9.136350356368842 -1 1 0
328 56 2 0.4238 15.301841079626232 7.191444672511797 7.53935266455688 0 0 1
380 82 2 0.4238 14.341709330232097 8.823796214730898 7.385728294470575 -2 1 1
541 163 2 0.4238 16.29880151092913 6.851408359391542 10.982157476701888 -1 1 -1
163 163 1 -0.8476 16.517650184463918 6.249201962274608 10.214433629870705 -1 1 -1
645 215 2 0.4238 0.080595414886524 8.335745498097692 9.255917520191206 1 0 1
174 174 1 -0.8476 17.166748521591572 10.447835822602693 11.150836101218816 -1 0 0
564 174 2 0.4238 17.228430013741523 11.439026642041371 11.033858058807786 -1 0 0
188 188 1 -0.8476 12.239128364942355 5.167105147361931 10.591817050547673 0 0 0
241 13 2 0.4238 17.462086457256888 11.765285368014798 5.798700109276956 0 0 -1
646 215 2 0.4238 17.51162533397698 9.30524213274547 9.726315491967432 0 0 1
215 215 1 -0.8476 17.797680203138285 8.614021038028111 9.062739700310134 0 0 1
592 188 2 0.4238 12.825587332182549 5.965037344036559 10.730802515736336 0 0 0
446 115 2 0.4238 16.740843067930477 4.947307861549303 11.675757353775207 0 0 -1
327 56 2 0.4238 16.173616547607658 8.269972326729825 8.401483945774844 0 0 1
542 163 2 0.4238 17.231830554069198 6.669141336042637 9.654482569652913 -1 1 -1
56 56 1 -0.8476 15.252121132790842 7.933220234092749 8.208115562627814 0 0 1
396 90 2 0.4238 14.062842732084292 8.055847861948678 11.491843195367144 1 0 0
90 90 1 -0.8476 13.84014781948694 7.41544863218611 10.756830789922532 1 0 0
395 90 2 0.4238 14.617107691150132 7.34245619625338 10.13156826123337 1 0 0
538 161 2 0.4238 14.3531792901283 10.57683821911845 11.552588371334624 -1 0 -1
161 161 1 -0.8476 14.39187522582304 9.793047957803452 12.17236446084947 -1 0 -1
537 161 2 0.4238 14.833388491842927 10.065566070031304 13.027201797276375 -1 0 -1
563 174 2 0.4238 16.216231430617412 10.191410512065504 11.326080354549466 -1 0 0
145 145 1 -0.8476 3.359071354498903 13.239931066077814 6.7271104032855105 1 -1 0
505 145 2 0.4238 3.3362443818305576 13.101013331094947 7.71712435043251 1 -1 0
284 34 2 0.4238 2.999206958845553 11.687063844230737 10.064201424560757 -1 1 1
406 95 2 0.4238 1.8132825479791623 17.725933106038426 6.9783004139381655 1 0 0
461 123 2 0.4238 3.8306176039781685 13.026408200474346 12.020291445756753 -1 1 0
212 212 1 -0.8476 3.7474228171490993 18.383070489650144 9.18224013999551 2 0 0
639 212 2 0.4238 4.741319841861545 18.34097623215905 9.283943894841846 2 0 0
268 26 2 0.4238 5.810823892851474 15.605932563395994 6.37934644296668 -1 -1 -1
640 212 2 0.4238 3.5162960021394314 18.514736230143914 8.218294422638165 2 0 0
420 102 2 0.4238 0.3723204392730995 13.641168617755973 10.524499569812559 1 0 1