
     Program PWSCF v.7.5 starts on  6Mar2026 at  4:34:59 

     This program is part of the open-source Quantum ESPRESSO suite
     for quantum simulation of materials; please cite
         "P. Giannozzi et al., J. Phys.:Condens. Matter 21 395502 (2009);
         "P. Giannozzi et al., J. Phys.:Condens. Matter 29 465901 (2017);
         "P. Giannozzi et al., J. Chem. Phys. 152 154105 (2020);
          URL http://www.quantum-espresso.org", 
     in publications or presentations arising from this work. More details at
     http://www.quantum-espresso.org/quote

     Parallel version (MPI & OpenMP), running on      20 processor cores
     Number of MPI processes:                 1
     Threads/MPI process:                    20

     MPI processes distributed on     1 nodes
     1167 MiB available memory on the printing compute node when the environment starts

     Waiting for input...
     Reading input from standard input
Warning: card &IONS ignored
Warning: card &CELL ignored

     Current dimensions of program PWSCF are:
     Max number of different atomic species (ntypx) = 10
     Max number of k-points (npk) =  40000
     Max angular momentum in pseudopotentials (lmaxx) =  4
     Message from routine input:
     WARNING: "startingwfc" set to atomic+random may spoil restart
     file Ni.pbe-spn-kjpaw_psl.1.0.0.UPF: wavefunction(s)  3P 3D renormalized
     file O.pbe-n-kjpaw_psl.1.0.0.UPF: wavefunction(s)  2S 2P renormalized

     Subspace diagonalization in iterative solution of the eigenvalue problem:
     a serial algorithm will be used


     G-vector sticks info
     --------------------
     sticks:   dense  smooth     PW     G-vecs:    dense   smooth      PW
     Sum        1027     649    199                21595    10777    1807

     Using Slab Decomposition



     bravais-lattice index     =            2
     lattice parameter (alat)  =       7.8802  a.u.
     unit-cell volume          =     122.3335 (a.u.)^3
     number of atoms/cell      =            2
     number of atomic types    =            2
     number of electrons       =        24.00
     number of Kohn-Sham states=           30
     kinetic-energy cutoff     =      75.0000  Ry
     charge density cutoff     =     476.0000  Ry
     Exchange-correlation= SLA  PW   PBX  PBC
                           (   1   4   3   4   0   0   0)

     celldm(1)=   7.880161  celldm(2)=   0.000000  celldm(3)=   0.000000
     celldm(4)=   0.000000  celldm(5)=   0.000000  celldm(6)=   0.000000

     crystal axes: (cart. coord. in units of alat)
               a(1) = (  -0.500000   0.000000   0.500000 )  
               a(2) = (   0.000000   0.500000   0.500000 )  
               a(3) = (  -0.500000   0.500000   0.000000 )  

     reciprocal axes: (cart. coord. in units 2 pi/alat)
               b(1) = ( -1.000000 -1.000000  1.000000 )  
               b(2) = (  1.000000  1.000000  1.000000 )  
               b(3) = ( -1.000000  1.000000 -1.000000 )  


     PseudoPot. # 1 for Ni read from file:
     ../pseudo/Ni.pbe-spn-kjpaw_psl.1.0.0.UPF
     MD5 check sum: 5eaa299160b0f7a6ff124636e76a5b58
     Pseudo is Projector augmented-wave + core cor, Zval = 18.0
     Generated using 'atomic' code by A. Dal Corso  v.7.5
     Shape of augmentation charge: PSQ
     Using radial grid of 1195 points,  6 beta functions with: 
                l(1) =   0
                l(2) =   0
                l(3) =   1
                l(4) =   1
                l(5) =   2
                l(6) =   2
     Q(r) pseudized with 0 coefficients 


     PseudoPot. # 2 for O  read from file:
     ../pseudo/O.pbe-n-kjpaw_psl.1.0.0.UPF
     MD5 check sum: 5e5d16d4b02ac8af566247e0cce773e0
     Pseudo is Projector augmented-wave + core cor, Zval =  6.0
     Generated using 'atomic' code by A. Dal Corso  v.7.5
     Shape of augmentation charge: PSQ
     Using radial grid of 1095 points,  4 beta functions with: 
                l(1) =   0
                l(2) =   0
                l(3) =   1
                l(4) =   1
     Q(r) pseudized with 0 coefficients 


     atomic species   valence    mass     pseudopotential
     Ni               18.00    58.69340     Ni( 1.00)
     O                 6.00    15.99940     O ( 1.00)

     48 Sym. Ops., with inversion, found


                                    s                        frac. trans.

      isym =  1     identity                                     

 cryst.   s( 1) = (     1          0          0      )
                  (     0          1          0      )
                  (     0          0          1      )

 cart.    s( 1) = (  1.0000000  0.0000000  0.0000000 )
                  (  0.0000000  1.0000000  0.0000000 )
                  (  0.0000000  0.0000000  1.0000000 )


      isym =  2     180 deg rotation - cart. axis [0,0,1]        

 cryst.   s( 2) = (     0          1         -1      )
                  (     1          0         -1      )
                  (     0          0         -1      )

 cart.    s( 2) = ( -1.0000000  0.0000000  0.0000000 )
                  (  0.0000000 -1.0000000  0.0000000 )
                  (  0.0000000  0.0000000  1.0000000 )


      isym =  3     180 deg rotation - cart. axis [0,1,0]        

 cryst.   s( 3) = (    -1          0          0      )
                  (    -1          0          1      )
                  (    -1          1          0      )

 cart.    s( 3) = ( -1.0000000  0.0000000  0.0000000 )
                  (  0.0000000  1.0000000  0.0000000 )
                  (  0.0000000  0.0000000 -1.0000000 )


      isym =  4     180 deg rotation - cart. axis [1,0,0]        

 cryst.   s( 4) = (     0         -1          1      )
                  (     0         -1          0      )
                  (     1         -1          0      )

 cart.    s( 4) = (  1.0000000  0.0000000  0.0000000 )
                  (  0.0000000 -1.0000000  0.0000000 )
                  (  0.0000000  0.0000000 -1.0000000 )


      isym =  5     180 deg rotation - cart. axis [1,1,0]        

 cryst.   s( 5) = (     0         -1          0      )
                  (    -1          0          0      )
                  (     0          0         -1      )

 cart.    s( 5) = (  0.0000000  1.0000000  0.0000000 )
                  (  1.0000000  0.0000000  0.0000000 )
                  (  0.0000000  0.0000000 -1.0000000 )


      isym =  6     180 deg rotation - cart. axis [1,-1,0]       

 cryst.   s( 6) = (    -1          0          1      )
                  (     0         -1          1      )
                  (     0          0          1      )

 cart.    s( 6) = (  0.0000000 -1.0000000  0.0000000 )
                  ( -1.0000000  0.0000000  0.0000000 )
                  (  0.0000000  0.0000000 -1.0000000 )


      isym =  7      90 deg rotation - cart. axis [0,0,-1]       

 cryst.   s( 7) = (     0          1          0      )
                  (     0          1         -1      )
                  (    -1          1          0      )

 cart.    s( 7) = (  0.0000000  1.0000000  0.0000000 )
                  ( -1.0000000  0.0000000  0.0000000 )
                  (  0.0000000  0.0000000  1.0000000 )


      isym =  8      90 deg rotation - cart. axis [0,0,1]        

 cryst.   s( 8) = (     1          0         -1      )
                  (     1          0          0      )
                  (     1         -1          0      )

 cart.    s( 8) = (  0.0000000 -1.0000000  0.0000000 )
                  (  1.0000000  0.0000000  0.0000000 )
                  (  0.0000000  0.0000000  1.0000000 )


      isym =  9     180 deg rotation - cart. axis [1,0,1]        

 cryst.   s( 9) = (    -1          0          0      )
                  (     0          0         -1      )
                  (     0         -1          0      )

 cart.    s( 9) = (  0.0000000  0.0000000  1.0000000 )
                  (  0.0000000 -1.0000000  0.0000000 )
                  (  1.0000000  0.0000000  0.0000000 )


      isym = 10     180 deg rotation - cart. axis [-1,0,1]       

 cryst.   s(10) = (     1          0          0      )
                  (     1         -1          0      )
                  (     1          0         -1      )

 cart.    s(10) = (  0.0000000  0.0000000 -1.0000000 )
                  (  0.0000000 -1.0000000  0.0000000 )
                  ( -1.0000000  0.0000000  0.0000000 )


      isym = 11      90 deg rotation - cart. axis [0,1,0]        

 cryst.   s(11) = (     0          1         -1      )
                  (    -1          1          0      )
                  (     0          1          0      )

 cart.    s(11) = (  0.0000000  0.0000000  1.0000000 )
                  (  0.0000000  1.0000000  0.0000000 )
                  ( -1.0000000  0.0000000  0.0000000 )


      isym = 12      90 deg rotation - cart. axis [0,-1,0]       

 cryst.   s(12) = (     0         -1          1      )
                  (     0          0          1      )
                  (    -1          0          1      )

 cart.    s(12) = (  0.0000000  0.0000000 -1.0000000 )
                  (  0.0000000  1.0000000  0.0000000 )
                  (  1.0000000  0.0000000  0.0000000 )


      isym = 13     180 deg rotation - cart. axis [0,1,1]        

 cryst.   s(13) = (    -1          1          0      )
                  (     0          1          0      )
                  (     0          1         -1      )

 cart.    s(13) = ( -1.0000000  0.0000000  0.0000000 )
                  (  0.0000000  0.0000000  1.0000000 )
                  (  0.0000000  1.0000000  0.0000000 )


      isym = 14     180 deg rotation - cart. axis [0,1,-1]       

 cryst.   s(14) = (     0          0         -1      )
                  (     0         -1          0      )
                  (    -1          0          0      )

 cart.    s(14) = ( -1.0000000  0.0000000  0.0000000 )
                  (  0.0000000  0.0000000 -1.0000000 )
                  (  0.0000000 -1.0000000  0.0000000 )


      isym = 15      90 deg rotation - cart. axis [-1,0,0]       

 cryst.   s(15) = (     0          0          1      )
                  (    -1          0          1      )
                  (     0         -1          1      )

 cart.    s(15) = (  1.0000000  0.0000000  0.0000000 )
                  (  0.0000000  0.0000000  1.0000000 )
                  (  0.0000000 -1.0000000  0.0000000 )


      isym = 16      90 deg rotation - cart. axis [1,0,0]        

 cryst.   s(16) = (     1         -1          0      )
                  (     1          0         -1      )
                  (     1          0          0      )

 cart.    s(16) = (  1.0000000  0.0000000  0.0000000 )
                  (  0.0000000  0.0000000 -1.0000000 )
                  (  0.0000000  1.0000000  0.0000000 )


      isym = 17     120 deg rotation - cart. axis [-1,-1,-1]     

 cryst.   s(17) = (    -1          0          1      )
                  (    -1          1          0      )
                  (    -1          0          0      )

 cart.    s(17) = (  0.0000000  1.0000000  0.0000000 )
                  (  0.0000000  0.0000000  1.0000000 )
                  (  1.0000000  0.0000000  0.0000000 )


      isym = 18     120 deg rotation - cart. axis [-1,1,1]       

 cryst.   s(18) = (     0          1          0      )
                  (     0          0          1      )
                  (     1          0          0      )

 cart.    s(18) = (  0.0000000 -1.0000000  0.0000000 )
                  (  0.0000000  0.0000000  1.0000000 )
                  ( -1.0000000  0.0000000  0.0000000 )


      isym = 19     120 deg rotation - cart. axis [1,1,-1]       

 cryst.   s(19) = (     1          0         -1      )
                  (     0          0         -1      )
                  (     0          1         -1      )

 cart.    s(19) = (  0.0000000  1.0000000  0.0000000 )
                  (  0.0000000  0.0000000 -1.0000000 )
                  ( -1.0000000  0.0000000  0.0000000 )


      isym = 20     120 deg rotation - cart. axis [1,-1,1]       

 cryst.   s(20) = (     0         -1          0      )
                  (     1         -1          0      )
                  (     0         -1          1      )

 cart.    s(20) = (  0.0000000 -1.0000000  0.0000000 )
                  (  0.0000000  0.0000000 -1.0000000 )
                  (  1.0000000  0.0000000  0.0000000 )


      isym = 21     120 deg rotation - cart. axis [1,1,1]        

 cryst.   s(21) = (     0          0         -1      )
                  (     0          1         -1      )
                  (     1          0         -1      )

 cart.    s(21) = (  0.0000000  0.0000000  1.0000000 )
                  (  1.0000000  0.0000000  0.0000000 )
                  (  0.0000000  1.0000000  0.0000000 )


      isym = 22     120 deg rotation - cart. axis [-1,1,-1]      

 cryst.   s(22) = (    -1          1          0      )
                  (    -1          0          0      )
                  (    -1          0          1      )

 cart.    s(22) = (  0.0000000  0.0000000  1.0000000 )
                  ( -1.0000000  0.0000000  0.0000000 )
                  (  0.0000000 -1.0000000  0.0000000 )


      isym = 23     120 deg rotation - cart. axis [1,-1,-1]      

 cryst.   s(23) = (     0          0          1      )
                  (     1          0          0      )
                  (     0          1          0      )

 cart.    s(23) = (  0.0000000  0.0000000 -1.0000000 )
                  ( -1.0000000  0.0000000  0.0000000 )
                  (  0.0000000  1.0000000  0.0000000 )


      isym = 24     120 deg rotation - cart. axis [-1,-1,1]      

 cryst.   s(24) = (     1         -1          0      )
                  (     0         -1          1      )
                  (     0         -1          0      )

 cart.    s(24) = (  0.0000000  0.0000000 -1.0000000 )
                  (  1.0000000  0.0000000  0.0000000 )
                  (  0.0000000 -1.0000000  0.0000000 )


      isym = 25     inversion                                    

 cryst.   s(25) = (    -1          0          0      )
                  (     0         -1          0      )
                  (     0          0         -1      )

 cart.    s(25) = ( -1.0000000  0.0000000  0.0000000 )
                  (  0.0000000 -1.0000000  0.0000000 )
                  (  0.0000000  0.0000000 -1.0000000 )


      isym = 26     inv. 180 deg rotation - cart. axis [0,0,1]   

 cryst.   s(26) = (     0         -1          1      )
                  (    -1          0          1      )
                  (     0          0          1      )

 cart.    s(26) = (  1.0000000  0.0000000  0.0000000 )
                  (  0.0000000  1.0000000  0.0000000 )
                  (  0.0000000  0.0000000 -1.0000000 )


      isym = 27     inv. 180 deg rotation - cart. axis [0,1,0]   

 cryst.   s(27) = (     1          0          0      )
                  (     1          0         -1      )
                  (     1         -1          0      )

 cart.    s(27) = (  1.0000000  0.0000000  0.0000000 )
                  (  0.0000000 -1.0000000  0.0000000 )
                  (  0.0000000  0.0000000  1.0000000 )


      isym = 28     inv. 180 deg rotation - cart. axis [1,0,0]   

 cryst.   s(28) = (     0          1         -1      )
                  (     0          1          0      )
                  (    -1          1          0      )

 cart.    s(28) = ( -1.0000000  0.0000000  0.0000000 )
                  (  0.0000000  1.0000000  0.0000000 )
                  (  0.0000000  0.0000000  1.0000000 )


      isym = 29     inv. 180 deg rotation - cart. axis [1,1,0]   

 cryst.   s(29) = (     0          1          0      )
                  (     1          0          0      )
                  (     0          0          1      )

 cart.    s(29) = (  0.0000000 -1.0000000  0.0000000 )
                  ( -1.0000000  0.0000000  0.0000000 )
                  (  0.0000000  0.0000000  1.0000000 )


      isym = 30     inv. 180 deg rotation - cart. axis [1,-1,0]  

 cryst.   s(30) = (     1          0         -1      )
                  (     0          1         -1      )
                  (     0          0         -1      )

 cart.    s(30) = (  0.0000000  1.0000000  0.0000000 )
                  (  1.0000000  0.0000000  0.0000000 )
                  (  0.0000000  0.0000000  1.0000000 )


      isym = 31     inv.  90 deg rotation - cart. axis [0,0,-1]  

 cryst.   s(31) = (     0         -1          0      )
                  (     0         -1          1      )
                  (     1         -1          0      )

 cart.    s(31) = (  0.0000000 -1.0000000  0.0000000 )
                  (  1.0000000  0.0000000  0.0000000 )
                  (  0.0000000  0.0000000 -1.0000000 )


      isym = 32     inv.  90 deg rotation - cart. axis [0,0,1]   

 cryst.   s(32) = (    -1          0          1      )
                  (    -1          0          0      )
                  (    -1          1          0      )

 cart.    s(32) = (  0.0000000  1.0000000  0.0000000 )
                  ( -1.0000000  0.0000000  0.0000000 )
                  (  0.0000000  0.0000000 -1.0000000 )


      isym = 33     inv. 180 deg rotation - cart. axis [1,0,1]   

 cryst.   s(33) = (     1          0          0      )
                  (     0          0          1      )
                  (     0          1          0      )

 cart.    s(33) = (  0.0000000  0.0000000 -1.0000000 )
                  (  0.0000000  1.0000000  0.0000000 )
                  ( -1.0000000  0.0000000  0.0000000 )


      isym = 34     inv. 180 deg rotation - cart. axis [-1,0,1]  

 cryst.   s(34) = (    -1          0          0      )
                  (    -1          1          0      )
                  (    -1          0          1      )

 cart.    s(34) = (  0.0000000  0.0000000  1.0000000 )
                  (  0.0000000  1.0000000  0.0000000 )
                  (  1.0000000  0.0000000  0.0000000 )


      isym = 35     inv.  90 deg rotation - cart. axis [0,1,0]   

 cryst.   s(35) = (     0         -1          1      )
                  (     1         -1          0      )
                  (     0         -1          0      )

 cart.    s(35) = (  0.0000000  0.0000000 -1.0000000 )
                  (  0.0000000 -1.0000000  0.0000000 )
                  (  1.0000000  0.0000000  0.0000000 )


      isym = 36     inv.  90 deg rotation - cart. axis [0,-1,0]  

 cryst.   s(36) = (     0          1         -1      )
                  (     0          0         -1      )
                  (     1          0         -1      )

 cart.    s(36) = (  0.0000000  0.0000000  1.0000000 )
                  (  0.0000000 -1.0000000  0.0000000 )
                  ( -1.0000000  0.0000000  0.0000000 )


      isym = 37     inv. 180 deg rotation - cart. axis [0,1,1]   

 cryst.   s(37) = (     1         -1          0      )
                  (     0         -1          0      )
                  (     0         -1          1      )

 cart.    s(37) = (  1.0000000  0.0000000  0.0000000 )
                  (  0.0000000  0.0000000 -1.0000000 )
                  (  0.0000000 -1.0000000  0.0000000 )


      isym = 38     inv. 180 deg rotation - cart. axis [0,1,-1]  

 cryst.   s(38) = (     0          0          1      )
                  (     0          1          0      )
                  (     1          0          0      )

 cart.    s(38) = (  1.0000000  0.0000000  0.0000000 )
                  (  0.0000000  0.0000000  1.0000000 )
                  (  0.0000000  1.0000000  0.0000000 )


      isym = 39     inv.  90 deg rotation - cart. axis [-1,0,0]  

 cryst.   s(39) = (     0          0         -1      )
                  (     1          0         -1      )
                  (     0          1         -1      )

 cart.    s(39) = ( -1.0000000  0.0000000  0.0000000 )
                  (  0.0000000  0.0000000 -1.0000000 )
                  (  0.0000000  1.0000000  0.0000000 )


      isym = 40     inv.  90 deg rotation - cart. axis [1,0,0]   

 cryst.   s(40) = (    -1          1          0      )
                  (    -1          0          1      )
                  (    -1          0          0      )

 cart.    s(40) = ( -1.0000000  0.0000000  0.0000000 )
                  (  0.0000000  0.0000000  1.0000000 )
                  (  0.0000000 -1.0000000  0.0000000 )


      isym = 41     inv. 120 deg rotation - cart. axis [-1,-1,-1]

 cryst.   s(41) = (     1          0         -1      )
                  (     1         -1          0      )
                  (     1          0          0      )

 cart.    s(41) = (  0.0000000 -1.0000000  0.0000000 )
                  (  0.0000000  0.0000000 -1.0000000 )
                  ( -1.0000000  0.0000000  0.0000000 )


      isym = 42     inv. 120 deg rotation - cart. axis [-1,1,1]  

 cryst.   s(42) = (     0         -1          0      )
                  (     0          0         -1      )
                  (    -1          0          0      )

 cart.    s(42) = (  0.0000000  1.0000000  0.0000000 )
                  (  0.0000000  0.0000000 -1.0000000 )
                  (  1.0000000  0.0000000  0.0000000 )


      isym = 43     inv. 120 deg rotation - cart. axis [1,1,-1]  

 cryst.   s(43) = (    -1          0          1      )
                  (     0          0          1      )
                  (     0         -1          1      )

 cart.    s(43) = (  0.0000000 -1.0000000  0.0000000 )
                  (  0.0000000  0.0000000  1.0000000 )
                  (  1.0000000  0.0000000  0.0000000 )


      isym = 44     inv. 120 deg rotation - cart. axis [1,-1,1]  

 cryst.   s(44) = (     0          1          0      )
                  (    -1          1          0      )
                  (     0          1         -1      )

 cart.    s(44) = (  0.0000000  1.0000000  0.0000000 )
                  (  0.0000000  0.0000000  1.0000000 )
                  ( -1.0000000  0.0000000  0.0000000 )


      isym = 45     inv. 120 deg rotation - cart. axis [1,1,1]   

 cryst.   s(45) = (     0          0          1      )
                  (     0         -1          1      )
                  (    -1          0          1      )

 cart.    s(45) = (  0.0000000  0.0000000 -1.0000000 )
                  ( -1.0000000  0.0000000  0.0000000 )
                  (  0.0000000 -1.0000000  0.0000000 )


      isym = 46     inv. 120 deg rotation - cart. axis [-1,1,-1] 

 cryst.   s(46) = (     1         -1          0      )
                  (     1          0          0      )
                  (     1          0         -1      )

 cart.    s(46) = (  0.0000000  0.0000000 -1.0000000 )
                  (  1.0000000  0.0000000  0.0000000 )
                  (  0.0000000  1.0000000  0.0000000 )


      isym = 47     inv. 120 deg rotation - cart. axis [1,-1,-1] 

 cryst.   s(47) = (     0          0         -1      )
                  (    -1          0          0      )
                  (     0         -1          0      )

 cart.    s(47) = (  0.0000000  0.0000000  1.0000000 )
                  (  1.0000000  0.0000000  0.0000000 )
                  (  0.0000000 -1.0000000  0.0000000 )


      isym = 48     inv. 120 deg rotation - cart. axis [-1,-1,1] 

 cryst.   s(48) = (    -1          1          0      )
                  (     0          1         -1      )
                  (     0          1          0      )

 cart.    s(48) = (  0.0000000  0.0000000  1.0000000 )
                  ( -1.0000000  0.0000000  0.0000000 )
                  (  0.0000000  1.0000000  0.0000000 )


     point group O_h (m-3m) 
     there are 10 classes
     the character table:

       E     8C3   3C2   6C4   6C2'  i     8S6   3s_h  6S4   6s_d 
A_1g   1.00  1.00  1.00  1.00  1.00  1.00  1.00  1.00  1.00  1.00
A_2g   1.00  1.00  1.00 -1.00 -1.00  1.00  1.00  1.00 -1.00 -1.00
E_g    2.00 -1.00  2.00  0.00  0.00  2.00 -1.00  2.00  0.00  0.00
T_1g   3.00  0.00 -1.00  1.00 -1.00  3.00  0.00 -1.00  1.00 -1.00
T_2g   3.00  0.00 -1.00 -1.00  1.00  3.00  0.00 -1.00 -1.00  1.00
A_1u   1.00  1.00  1.00  1.00  1.00 -1.00 -1.00 -1.00 -1.00 -1.00
A_2u   1.00  1.00  1.00 -1.00 -1.00 -1.00 -1.00 -1.00  1.00  1.00
E_u    2.00 -1.00  2.00  0.00  0.00 -2.00  1.00 -2.00  0.00  0.00
T_1u   3.00  0.00 -1.00  1.00 -1.00 -3.00  0.00  1.00 -1.00  1.00
T_2u   3.00  0.00 -1.00 -1.00  1.00 -3.00  0.00  1.00  1.00 -1.00

     the symmetry operations in each class and the name of the first element:

     E        1
          identity                                               
     8C3     17   19   20   18   24   21   22   23
          120 deg rotation - cart. axis [-1,-1,-1]               
     3C2      2    4    3
          180 deg rotation - cart. axis [0,0,1]                  
     6C4      7    8   15   16   12   11
           90 deg rotation - cart. axis [0,0,-1]                 
     6C2'     5    6   14   13   10    9
          180 deg rotation - cart. axis [1,1,0]                  
     i       25
          inversion                                              
     8S6     41   43   44   42   48   45   46   47
          inv. 120 deg rotation - cart. axis [-1,-1,-1]          
     3s_h    26   28   27
          inv. 180 deg rotation - cart. axis [0,0,1]             
     6S4     31   32   39   40   36   35
          inv.  90 deg rotation - cart. axis [0,0,-1]            
     6s_d    29   30   38   37   34   33
          inv. 180 deg rotation - cart. axis [1,1,0]             

   Cartesian axes

     site n.     atom                  positions (alat units)
         1        Ni     tau(   1) = (   0.0000000   0.0000000   0.0000000  )
         2        O      tau(   2) = (  -0.5000000   0.5000000   0.5000000  )

   Crystallographic axes

     site n.     atom                  positions (cryst. coord.)
         1        Ni     tau(   1) = (  0.0000000  0.0000000  0.0000000  )
         2        O      tau(   2) = (  0.5000000  0.5000000  0.5000000  )

     number of k points=    80  Marzari-Vanderbilt smearing, width (Ry)=  0.0100
                       cart. coord. in units 2pi/alat
        k(    1) = (   0.0000000   0.0000000   0.0000000), wk =   0.0000000
        k(    2) = (   0.0000000   0.0000000   0.0526316), wk =   0.0000000
        k(    3) = (   0.0000000   0.0000000   0.1052632), wk =   0.0000000
        k(    4) = (   0.0000000   0.0000000   0.1578947), wk =   0.0000000
        k(    5) = (   0.0000000   0.0000000   0.2105263), wk =   0.0000000
        k(    6) = (   0.0000000   0.0000000   0.2631579), wk =   0.0000000
        k(    7) = (   0.0000000   0.0000000   0.3157895), wk =   0.0000000
        k(    8) = (   0.0000000   0.0000000   0.3684211), wk =   0.0000000
        k(    9) = (   0.0000000   0.0000000   0.4210526), wk =   0.0000000
        k(   10) = (   0.0000000   0.0000000   0.4736842), wk =   0.0000000
        k(   11) = (   0.0000000   0.0000000   0.5263158), wk =   0.0000000
        k(   12) = (   0.0000000   0.0000000   0.5789474), wk =   0.0000000
        k(   13) = (   0.0000000   0.0000000   0.6315789), wk =   0.0000000
        k(   14) = (   0.0000000   0.0000000   0.6842105), wk =   0.0000000
        k(   15) = (   0.0000000   0.0000000   0.7368421), wk =   0.0000000
        k(   16) = (   0.0000000   0.0000000   0.7894737), wk =   0.0000000
        k(   17) = (   0.0000000   0.0000000   0.8421053), wk =   0.0000000
        k(   18) = (   0.0000000   0.0000000   0.8947368), wk =   0.0000000
        k(   19) = (   0.0000000   0.0000000   0.9473684), wk =   0.0000000
        k(   20) = (   0.0000000   0.0000000   1.0000000), wk =   0.0000000
        k(   21) = (   0.0000000   0.0000000   1.0000000), wk =   0.0000000
        k(   22) = (  -0.0000000   0.0394737   0.9868421), wk =   0.0000000
        k(   23) = (   0.0000000   0.0789474   0.9736842), wk =   0.0000000
        k(   24) = (  -0.0000000   0.1184211   0.9605263), wk =   0.0000000
        k(   25) = (   0.0000000   0.1578947   0.9473684), wk =   0.0000000
        k(   26) = (  -0.0000000   0.1973684   0.9342105), wk =   0.0000000
        k(   27) = (   0.0000000   0.2368421   0.9210526), wk =   0.0000000
        k(   28) = (   0.0000000   0.2763158   0.9078947), wk =   0.0000000
        k(   29) = (  -0.0000000   0.3157895   0.8947368), wk =   0.0000000
        k(   30) = (   0.0000000   0.3552632   0.8815789), wk =   0.0000000
        k(   31) = (  -0.0000000   0.3947368   0.8684211), wk =   0.0000000
        k(   32) = (   0.0000000   0.4342105   0.8552632), wk =   0.0000000
        k(   33) = (  -0.0000000   0.4736842   0.8421053), wk =   0.0000000
        k(   34) = (  -0.0000000   0.5131579   0.8289474), wk =   0.0000000
        k(   35) = (   0.0000000   0.5526316   0.8157895), wk =   0.0000000
        k(   36) = (  -0.0000000   0.5921053   0.8026316), wk =   0.0000000
        k(   37) = (   0.0000000   0.6315789   0.7894737), wk =   0.0000000
        k(   38) = (   0.0000000   0.6710526   0.7763158), wk =   0.0000000
        k(   39) = (   0.0000000   0.7105263   0.7631579), wk =   0.0000000
        k(   40) = (   0.0000000   0.7500000   0.7500000), wk =   0.0000000
        k(   41) = (   0.0000000   0.7500000   0.7500000), wk =   0.0000000
        k(   42) = (   0.0000000   0.7105263   0.7105263), wk =   0.0000000
        k(   43) = (   0.0000000   0.6710526   0.6710526), wk =   0.0000000
        k(   44) = (   0.0000000   0.6315789   0.6315789), wk =   0.0000000
        k(   45) = (   0.0000000   0.5921053   0.5921053), wk =   0.0000000
        k(   46) = (  -0.0000000   0.5526316   0.5526316), wk =   0.0000000
        k(   47) = (  -0.0000000   0.5131579   0.5131579), wk =   0.0000000
        k(   48) = (  -0.0000000   0.4736842   0.4736842), wk =   0.0000000
        k(   49) = (  -0.0000000   0.4342105   0.4342105), wk =   0.0000000
        k(   50) = (  -0.0000000   0.3947368   0.3947368), wk =   0.0000000
        k(   51) = (   0.0000000   0.3552632   0.3552632), wk =   0.0000000
        k(   52) = (   0.0000000   0.3157895   0.3157895), wk =   0.0000000
        k(   53) = (   0.0000000   0.2763158   0.2763158), wk =   0.0000000
        k(   54) = (   0.0000000   0.2368421   0.2368421), wk =   0.0000000
        k(   55) = (   0.0000000   0.1973684   0.1973684), wk =   0.0000000
        k(   56) = (   0.0000000   0.1578947   0.1578947), wk =   0.0000000
        k(   57) = (   0.0000000   0.1184211   0.1184211), wk =   0.0000000
        k(   58) = (   0.0000000   0.0789474   0.0789474), wk =   0.0000000
        k(   59) = (   0.0000000   0.0394737   0.0394737), wk =   0.0000000
        k(   60) = (   0.0000000   0.0000000   0.0000000), wk =   0.0000000
        k(   61) = (   0.0000000   0.0000000   0.0000000), wk =   0.0000000
        k(   62) = (  -0.0263158   0.0263158   0.0263158), wk =   0.0000000
        k(   63) = (  -0.0526316   0.0526316   0.0526316), wk =   0.0000000
        k(   64) = (  -0.0789474   0.0789474   0.0789474), wk =   0.0000000
        k(   65) = (  -0.1052632   0.1052632   0.1052632), wk =   0.0000000
        k(   66) = (  -0.1315789   0.1315789   0.1315789), wk =   0.0000000
        k(   67) = (  -0.1578947   0.1578947   0.1578947), wk =   0.0000000
        k(   68) = (  -0.1842105   0.1842105   0.1842105), wk =   0.0000000
        k(   69) = (  -0.2105263   0.2105263   0.2105263), wk =   0.0000000
        k(   70) = (  -0.2368421   0.2368421   0.2368421), wk =   0.0000000
        k(   71) = (  -0.2631579   0.2631579   0.2631579), wk =   0.0000000
        k(   72) = (  -0.2894737   0.2894737   0.2894737), wk =   0.0000000
        k(   73) = (  -0.3157895   0.3157895   0.3157895), wk =   0.0000000
        k(   74) = (  -0.3421053   0.3421053   0.3421053), wk =   0.0000000
        k(   75) = (  -0.3684211   0.3684211   0.3684211), wk =   0.0000000
        k(   76) = (  -0.3947368   0.3947368   0.3947368), wk =   0.0000000
        k(   77) = (  -0.4210526   0.4210526   0.4210526), wk =   0.0000000
        k(   78) = (  -0.4473684   0.4473684   0.4473684), wk =   0.0000000
        k(   79) = (  -0.4736842   0.4736842   0.4736842), wk =   0.0000000
        k(   80) = (  -0.5000000   0.5000000   0.5000000), wk =   0.0000000

                       cryst. coord.
        k(    1) = (   0.0000000   0.0000000   0.0000000), wk =   0.0000000
        k(    2) = (   0.0263158   0.0263158   0.0000000), wk =   0.0000000
        k(    3) = (   0.0526316   0.0526316   0.0000000), wk =   0.0000000
        k(    4) = (   0.0789474   0.0789474   0.0000000), wk =   0.0000000
        k(    5) = (   0.1052632   0.1052632   0.0000000), wk =   0.0000000
        k(    6) = (   0.1315789   0.1315789   0.0000000), wk =   0.0000000
        k(    7) = (   0.1578947   0.1578947   0.0000000), wk =   0.0000000
        k(    8) = (   0.1842105   0.1842105   0.0000000), wk =   0.0000000
        k(    9) = (   0.2105263   0.2105263   0.0000000), wk =   0.0000000
        k(   10) = (   0.2368421   0.2368421   0.0000000), wk =   0.0000000
        k(   11) = (   0.2631579   0.2631579   0.0000000), wk =   0.0000000
        k(   12) = (   0.2894737   0.2894737   0.0000000), wk =   0.0000000
        k(   13) = (   0.3157895   0.3157895   0.0000000), wk =   0.0000000
        k(   14) = (   0.3421053   0.3421053   0.0000000), wk =   0.0000000
        k(   15) = (   0.3684211   0.3684211   0.0000000), wk =   0.0000000
        k(   16) = (   0.3947368   0.3947368   0.0000000), wk =   0.0000000
        k(   17) = (   0.4210526   0.4210526   0.0000000), wk =   0.0000000
        k(   18) = (   0.4473684   0.4473684   0.0000000), wk =   0.0000000
        k(   19) = (   0.4736842   0.4736842   0.0000000), wk =   0.0000000
        k(   20) = (   0.5000000   0.5000000   0.0000000), wk =   0.0000000
        k(   21) = (   0.5000000   0.5000000   0.0000000), wk =   0.0000000
        k(   22) = (   0.4934211   0.5131579   0.0197368), wk =   0.0000000
        k(   23) = (   0.4868421   0.5263158   0.0394737), wk =   0.0000000
        k(   24) = (   0.4802632   0.5394737   0.0592105), wk =   0.0000000
        k(   25) = (   0.4736842   0.5526316   0.0789474), wk =   0.0000000
        k(   26) = (   0.4671053   0.5657895   0.0986842), wk =   0.0000000
        k(   27) = (   0.4605263   0.5789474   0.1184211), wk =   0.0000000
        k(   28) = (   0.4539474   0.5921053   0.1381579), wk =   0.0000000
        k(   29) = (   0.4473684   0.6052632   0.1578947), wk =   0.0000000
        k(   30) = (   0.4407895   0.6184211   0.1776316), wk =   0.0000000
        k(   31) = (   0.4342105   0.6315789   0.1973684), wk =   0.0000000
        k(   32) = (   0.4276316   0.6447368   0.2171053), wk =   0.0000000
        k(   33) = (   0.4210526   0.6578947   0.2368421), wk =   0.0000000
        k(   34) = (   0.4144737   0.6710526   0.2565789), wk =   0.0000000
        k(   35) = (   0.4078947   0.6842105   0.2763158), wk =   0.0000000
        k(   36) = (   0.4013158   0.6973684   0.2960526), wk =   0.0000000
        k(   37) = (   0.3947368   0.7105263   0.3157895), wk =   0.0000000
        k(   38) = (   0.3881579   0.7236842   0.3355263), wk =   0.0000000
        k(   39) = (   0.3815789   0.7368421   0.3552632), wk =   0.0000000
        k(   40) = (   0.3750000   0.7500000   0.3750000), wk =   0.0000000
        k(   41) = (   0.3750000   0.7500000   0.3750000), wk =   0.0000000
        k(   42) = (   0.3552632   0.7105263   0.3552632), wk =   0.0000000
        k(   43) = (   0.3355263   0.6710526   0.3355263), wk =   0.0000000
        k(   44) = (   0.3157895   0.6315789   0.3157895), wk =   0.0000000
        k(   45) = (   0.2960526   0.5921053   0.2960526), wk =   0.0000000
        k(   46) = (   0.2763158   0.5526316   0.2763158), wk =   0.0000000
        k(   47) = (   0.2565789   0.5131579   0.2565789), wk =   0.0000000
        k(   48) = (   0.2368421   0.4736842   0.2368421), wk =   0.0000000
        k(   49) = (   0.2171053   0.4342105   0.2171053), wk =   0.0000000
        k(   50) = (   0.1973684   0.3947368   0.1973684), wk =   0.0000000
        k(   51) = (   0.1776316   0.3552632   0.1776316), wk =   0.0000000
        k(   52) = (   0.1578947   0.3157895   0.1578947), wk =   0.0000000
        k(   53) = (   0.1381579   0.2763158   0.1381579), wk =   0.0000000
        k(   54) = (   0.1184211   0.2368421   0.1184211), wk =   0.0000000
        k(   55) = (   0.0986842   0.1973684   0.0986842), wk =   0.0000000
        k(   56) = (   0.0789474   0.1578947   0.0789474), wk =   0.0000000
        k(   57) = (   0.0592105   0.1184211   0.0592105), wk =   0.0000000
        k(   58) = (   0.0394737   0.0789474   0.0394737), wk =   0.0000000
        k(   59) = (   0.0197368   0.0394737   0.0197368), wk =   0.0000000
        k(   60) = (   0.0000000   0.0000000   0.0000000), wk =   0.0000000
        k(   61) = (   0.0000000   0.0000000   0.0000000), wk =   0.0000000
        k(   62) = (   0.0263158   0.0263158   0.0263158), wk =   0.0000000
        k(   63) = (   0.0526316   0.0526316   0.0526316), wk =   0.0000000
        k(   64) = (   0.0789474   0.0789474   0.0789474), wk =   0.0000000
        k(   65) = (   0.1052632   0.1052632   0.1052632), wk =   0.0000000
        k(   66) = (   0.1315789   0.1315789   0.1315789), wk =   0.0000000
        k(   67) = (   0.1578947   0.1578947   0.1578947), wk =   0.0000000
        k(   68) = (   0.1842105   0.1842105   0.1842105), wk =   0.0000000
        k(   69) = (   0.2105263   0.2105263   0.2105263), wk =   0.0000000
        k(   70) = (   0.2368421   0.2368421   0.2368421), wk =   0.0000000
        k(   71) = (   0.2631579   0.2631579   0.2631579), wk =   0.0000000
        k(   72) = (   0.2894737   0.2894737   0.2894737), wk =   0.0000000
        k(   73) = (   0.3157895   0.3157895   0.3157895), wk =   0.0000000
        k(   74) = (   0.3421053   0.3421053   0.3421053), wk =   0.0000000
        k(   75) = (   0.3684211   0.3684211   0.3684211), wk =   0.0000000
        k(   76) = (   0.3947368   0.3947368   0.3947368), wk =   0.0000000
        k(   77) = (   0.4210526   0.4210526   0.4210526), wk =   0.0000000
        k(   78) = (   0.4473684   0.4473684   0.4473684), wk =   0.0000000
        k(   79) = (   0.4736842   0.4736842   0.4736842), wk =   0.0000000
        k(   80) = (   0.5000000   0.5000000   0.5000000), wk =   0.0000000

     Dense  grid:    21595 G-vectors     FFT dimensions: (  40,  40,  40)

     Smooth grid:    10777 G-vectors     FFT dimensions: (  32,  32,  32)

     Dynamical RAM for                 wfc:       0.61 MB

     Dynamical RAM for     wfc (w. buffer):       0.61 MB

     Dynamical RAM for           str. fact:       0.66 MB

     Dynamical RAM for           local pot:       0.00 MB

     Dynamical RAM for          nlocal pot:       0.53 MB

     Dynamical RAM for                qrad:       3.50 MB

     Dynamical RAM for          rho,v,vnew:       2.45 MB

     Dynamical RAM for           G-vectors:       1.32 MB

     Dynamical RAM for          h,s,v(r/c):       0.16 MB

     Dynamical RAM for          <psi|beta>:       0.01 MB

     Dynamical RAM for                 psi:       1.23 MB

     Dynamical RAM for                hpsi:       1.23 MB

     Dynamical RAM for                spsi:       1.23 MB

     Dynamical RAM for      wfcinit/wfcrot:       1.25 MB

     Dynamical RAM for           addusdens:      61.62 MB

     Estimated static dynamical RAM per process >      12.51 MB

     Estimated max dynamical RAM per process >      74.13 MB

     Atomic positions and unit cell read from directory:
     ./tmp/nio.save/


     Check: negative core charge=   -0.000002

     The potential is recalculated from file :
     ./tmp/nio.save/charge-density

     Starting wfcs are   14 randomized atomic wfcs +   16 random wfcs
     Checking if some PAW data can be deallocated... 

     Band Structure Calculation
     Davidson diagonalization with overlap

     Computing kpt #:     1  of    80
     total cpu time spent up to now is        3.8 secs

     Computing kpt #:     2  of    80
     total cpu time spent up to now is        6.3 secs

     Computing kpt #:     3  of    80
     total cpu time spent up to now is        9.0 secs

     Computing kpt #:     4  of    80
     total cpu time spent up to now is       11.4 secs

     Computing kpt #:     5  of    80
     total cpu time spent up to now is       14.1 secs

     Computing kpt #:     6  of    80
     total cpu time spent up to now is       16.5 secs

     Computing kpt #:     7  of    80
     total cpu time spent up to now is       18.5 secs

     Computing kpt #:     8  of    80
     total cpu time spent up to now is       20.3 secs

     Computing kpt #:     9  of    80
     total cpu time spent up to now is       22.2 secs

     Computing kpt #:    10  of    80
     total cpu time spent up to now is       24.3 secs

     Computing kpt #:    11  of    80
     total cpu time spent up to now is       26.8 secs

     Computing kpt #:    12  of    80
     total cpu time spent up to now is       29.1 secs

     Computing kpt #:    13  of    80
     total cpu time spent up to now is       31.8 secs

     Computing kpt #:    14  of    80
     total cpu time spent up to now is       34.8 secs

     Computing kpt #:    15  of    80
     total cpu time spent up to now is       37.8 secs

     Computing kpt #:    16  of    80
     total cpu time spent up to now is       40.1 secs

     Computing kpt #:    17  of    80
     total cpu time spent up to now is       42.4 secs

     Computing kpt #:    18  of    80
     total cpu time spent up to now is       44.1 secs

     Computing kpt #:    19  of    80
     total cpu time spent up to now is       46.3 secs

     Computing kpt #:    20  of    80
     total cpu time spent up to now is       48.0 secs

     Computing kpt #:    21  of    80
     total cpu time spent up to now is       50.0 secs

     Computing kpt #:    22  of    80
     total cpu time spent up to now is       51.7 secs

     Computing kpt #:    23  of    80
     total cpu time spent up to now is       54.2 secs

     Computing kpt #:    24  of    80
     total cpu time spent up to now is       56.8 secs

     Computing kpt #:    25  of    80
     total cpu time spent up to now is       59.5 secs

     Computing kpt #:    26  of    80
     total cpu time spent up to now is       61.8 secs

     Computing kpt #:    27  of    80
     total cpu time spent up to now is       64.0 secs

     Computing kpt #:    28  of    80
     total cpu time spent up to now is       66.5 secs

     Computing kpt #:    29  of    80
     total cpu time spent up to now is       68.9 secs

     Computing kpt #:    30  of    80
     total cpu time spent up to now is       71.6 secs

     Computing kpt #:    31  of    80
     total cpu time spent up to now is       74.0 secs

     Computing kpt #:    32  of    80
     total cpu time spent up to now is       76.6 secs

     Computing kpt #:    33  of    80
     total cpu time spent up to now is       78.4 secs

     Computing kpt #:    34  of    80
     total cpu time spent up to now is       80.1 secs

     Computing kpt #:    35  of    80
     total cpu time spent up to now is       82.6 secs

     Computing kpt #:    36  of    80
     total cpu time spent up to now is       84.4 secs

     Computing kpt #:    37  of    80
     total cpu time spent up to now is       86.6 secs

     Computing kpt #:    38  of    80
     total cpu time spent up to now is       89.1 secs

     Computing kpt #:    39  of    80
     total cpu time spent up to now is       91.6 secs

     Computing kpt #:    40  of    80
     total cpu time spent up to now is       93.9 secs

     Computing kpt #:    41  of    80
     total cpu time spent up to now is       95.9 secs

     Computing kpt #:    42  of    80
     total cpu time spent up to now is       98.4 secs

     Computing kpt #:    43  of    80
     total cpu time spent up to now is      101.3 secs

     Computing kpt #:    44  of    80
     total cpu time spent up to now is      104.0 secs

     Computing kpt #:    45  of    80
     total cpu time spent up to now is      106.6 secs

     Computing kpt #:    46  of    80
     total cpu time spent up to now is      109.2 secs

     Computing kpt #:    47  of    80
     total cpu time spent up to now is      111.5 secs

     Computing kpt #:    48  of    80
     total cpu time spent up to now is      113.8 secs

     Computing kpt #:    49  of    80
     total cpu time spent up to now is      116.5 secs

     Computing kpt #:    50  of    80
     total cpu time spent up to now is      119.2 secs

     Computing kpt #:    51  of    80
     total cpu time spent up to now is      121.8 secs

     Computing kpt #:    52  of    80
     total cpu time spent up to now is      124.4 secs

     Computing kpt #:    53  of    80
     total cpu time spent up to now is      127.0 secs

     Computing kpt #:    54  of    80
     total cpu time spent up to now is      129.3 secs

     Computing kpt #:    55  of    80
     total cpu time spent up to now is      131.1 secs

     Computing kpt #:    56  of    80
     total cpu time spent up to now is      133.4 secs

     Computing kpt #:    57  of    80
     total cpu time spent up to now is      135.3 secs

     Computing kpt #:    58  of    80
     total cpu time spent up to now is      137.3 secs

     Computing kpt #:    59  of    80
     total cpu time spent up to now is      139.5 secs

     Computing kpt #:    60  of    80
     total cpu time spent up to now is      141.6 secs

     Computing kpt #:    61  of    80
     total cpu time spent up to now is      144.1 secs

     Computing kpt #:    62  of    80
     total cpu time spent up to now is      146.9 secs

     Computing kpt #:    63  of    80
     total cpu time spent up to now is      149.5 secs

     Computing kpt #:    64  of    80
     total cpu time spent up to now is      152.2 secs

     Computing kpt #:    65  of    80
     total cpu time spent up to now is      155.1 secs

     Computing kpt #:    66  of    80
     total cpu time spent up to now is      157.6 secs

     Computing kpt #:    67  of    80
     total cpu time spent up to now is      160.5 secs

     Computing kpt #:    68  of    80
     total cpu time spent up to now is      163.3 secs

     Computing kpt #:    69  of    80
     total cpu time spent up to now is      165.9 secs

     Computing kpt #:    70  of    80
     total cpu time spent up to now is      168.9 secs

     Computing kpt #:    71  of    80
     total cpu time spent up to now is      171.3 secs

     Computing kpt #:    72  of    80
     total cpu time spent up to now is      173.7 secs

     Computing kpt #:    73  of    80
     total cpu time spent up to now is      176.1 secs

     Computing kpt #:    74  of    80
     total cpu time spent up to now is      178.6 secs

     Computing kpt #:    75  of    80
     total cpu time spent up to now is      181.4 secs

     Computing kpt #:    76  of    80
     total cpu time spent up to now is      184.2 secs

     Computing kpt #:    77  of    80
     total cpu time spent up to now is      186.9 secs

     Computing kpt #:    78  of    80
     total cpu time spent up to now is      189.5 secs

     Computing kpt #:    79  of    80
     total cpu time spent up to now is      191.8 secs

     Computing kpt #:    80  of    80
     total cpu time spent up to now is      194.2 secs

     ethr =  4.17E-11,  avg # of iterations = 40.6

     total cpu time spent up to now is      194.2 secs

     End of band structure calculation

          k = 0.0000 0.0000 0.0000 (  1363 PWs)   bands (ev):

   -88.7175 -49.1105 -49.1105 -49.1105  -6.1355  11.2315  11.2315  11.2315
    12.5083  12.5083  12.5083  12.8454  12.8454  16.0007  32.1983  33.4917
    33.4917  33.4917  37.0432  37.0432  37.0432  40.5809  40.5809  50.5117
    50.5117  50.5117  51.2663  68.1554  68.1554  68.1554

          k = 0.0000 0.0000 0.0526 (  1363 PWs)   bands (ev):

   -88.7175 -49.1107 -49.1106 -49.1106  -6.1249  11.0911  11.2003  11.2003
    12.5013  12.5418  12.5418  12.8481  12.9415  16.0714  31.8956  33.3899
    33.3899  33.8485  36.6524  37.1944  37.1944  40.5957  40.9262  50.2719
    50.4967  50.4967  51.5628  67.3760  67.8279  67.8279

          k = 0.0000 0.0000 0.1053 (  1367 PWs)   bands (ev):

   -88.7174 -49.1116 -49.1109 -49.1109  -6.0935  10.7536  11.1166  11.1166
    12.4806  12.6320  12.6320  12.8560  13.1487  16.2797  31.3525  33.1285
    33.1285  34.5534  35.7588  37.6037  37.6037  40.6400  41.6808  49.8666
    50.4514  50.4514  52.1432  65.9885  67.1221  67.1221

          k = 0.0000 0.0000 0.1579 (  1359 PWs)   bands (ev):

   -88.7172 -49.1123 -49.1111 -49.1111  -6.0421  10.3332  11.0008  11.0008
    12.4468  12.7580  12.7580  12.8690  13.3647  16.6120  30.7964  32.7884
    32.7884  34.6755  35.3786  38.1908  38.1908  40.7142  42.5271  49.4440
    50.3756  50.3756  52.8744  64.5193  66.3157  66.3157

          k = 0.0000 0.0000 0.2105 (  1343 PWs)   bands (ev):

   -88.7170 -49.1131 -49.1114 -49.1114  -5.9723   9.8902  10.8704  10.8704
    12.4010  12.8868  12.9006  12.9006  13.5497  17.0434  30.2703  32.4298
    32.4298  33.5307  36.2796  38.8958  38.8958  40.8186  43.3318  49.0258
    50.2691  50.2691  53.7538  63.0591  65.5053  65.5053

          k = 0.0000 0.0000 0.2632 (  1343 PWs)   bands (ev):

   -88.7167 -49.1150 -49.1120 -49.1120  -5.8860   9.4544  10.7373  10.7373
    12.3446  12.9086  13.0454  13.0454  13.6988  17.5424  29.7845  32.0872
    32.0872  32.3784  37.2448  39.6840  39.6840  40.9539  44.0364  48.6298
    50.1320  50.1320  54.7853  61.6314  64.7254  64.7254

          k = 0.0000 0.0000 0.3158 (  1335 PWs)   bands (ev):

   -88.7164 -49.1169 -49.1126 -49.1126  -5.7861   9.0428  10.6085  10.6085
    12.2789  12.9344  13.1838  13.1838  13.8190  18.0783  29.3414  31.2486
    31.7797  31.7797  38.2699  40.5365  40.5365  41.1208  44.6045  48.2886
    49.9647  49.9647  55.9640  60.2454  63.9917  63.9917

          k = 0.0000 0.0000 0.3684 (  1335 PWs)   bands (ev):

   -88.7162 -49.1191 -49.1135 -49.1135  -5.6755   8.6662  10.4888  10.4888
    12.2060  12.9630  13.3087  13.3087  13.9159  18.6241  28.9408  30.1622
    31.5175  31.5175  39.3527  41.3202  41.4415  41.4415  44.9953  48.0585
    49.7688  49.7688  57.2741  58.9052  63.3118  63.3118

          k = 0.0000 0.0000 0.4211 (  1343 PWs)   bands (ev):

   -88.7159 -49.1218 -49.1147 -49.1147  -5.5577   8.3321  10.3806  10.3806
    12.1279  12.9938  13.4159  13.4159  13.9932  19.1563  28.5816  29.1371
    31.3053  31.3053  40.4920  41.5530  42.3920  42.3920  45.1642  48.0088
    49.5472  49.5472  57.6133  58.6940  62.6896  62.6896

          k = 0.0000 0.0000 0.4737 (  1335 PWs)   bands (ev):

   -88.7155 -49.1242 -49.1155 -49.1155  -5.4364   8.0455  10.2856  10.2856
    12.0474  13.0263  13.5033  13.5033  14.0516  19.6542  28.1907  28.2624
    31.1448  31.1448  41.6867  41.8205  43.3825  43.3825  45.1102  48.1668
    49.3049  49.3049  56.3711  60.2000  62.1262  62.1262

          k = 0.0000 0.0000 0.5263 (  1331 PWs)   bands (ev):

   -88.7152 -49.1265 -49.1165 -49.1165  -5.3154   7.8093  10.2044  10.2044
    11.9660  13.0591  13.5695  13.5695  14.0907  20.0973  27.3412  27.9811
    31.0342  31.0342  42.1236  42.9362  44.4071  44.4071  44.9026  48.4869
    49.0498  49.0498  55.1796  61.6204  61.6204  61.7669

          k = 0.0000 0.0000 0.5789 (  1335 PWs)   bands (ev):

   -88.7149 -49.1290 -49.1177 -49.1177  -5.1984   7.6241  10.1368  10.1368
    11.8862  13.0916  13.6153  13.6153  14.1079  20.4660  26.6079  27.7357
    30.9694  30.9694  42.4635  44.2394  44.6223  45.4568  45.4568  48.7958
    48.7958  48.9062  54.0395  61.1688  61.1688  63.3663

          k = 0.0000 0.0000 0.6316 (  1343 PWs)   bands (ev):

   -88.7146 -49.1314 -49.1189 -49.1189  -5.0889   7.4891  10.0822  10.0822
    11.8100  13.1225  13.6425  13.6425  14.1017  20.7423  26.0097  27.5244
    30.9442  30.9442  42.8415  44.3237  45.5958  46.5048  46.5048  48.5757
    48.5757  49.3826  52.9513  60.7649  60.7649  64.9520

          k = 0.0000 0.0000 0.6842 (  1343 PWs)   bands (ev):

   -88.7143 -49.1335 -49.1199 -49.1199  -4.9897   7.3999  10.0396  10.0396
    11.7398  13.1515  13.6540  13.6540  14.0733  20.9149  25.5595  27.3454
    30.9507  30.9507  43.2586  44.0368  47.0043  47.4040  47.4040  48.5439
    48.5439  49.8902  51.9155  60.3975  60.3975  66.1554

          k = 0.0000 0.0000 0.7368 (  1347 PWs)   bands (ev):

   -88.7141 -49.1357 -49.1207 -49.1207  -4.9032   7.3507  10.0076  10.0076
    11.6772  13.1778  13.6536  13.6536  14.0240  20.9869  25.2556  27.1971
    30.9797  30.9797  43.7157  43.7790  47.6614  47.6614  48.4638  49.1999
    49.1999  50.4073  50.9325  60.0454  60.0454  64.5884

          k = 0.0000 0.0000 0.7895 (  1347 PWs)   bands (ev):

   -88.7139 -49.1374 -49.1214 -49.1214  -4.8310   7.3329   9.9846   9.9846
    11.6239  13.2003  13.6457  13.6457  13.9600  20.9800  25.0768  27.0778
    31.0212  31.0212  43.5603  44.2130  47.5428  47.5428  49.9726  50.0033
    50.2820  50.2820  50.9098  59.6638  59.6638  63.1659

          k = 0.0000 0.0000 0.8421 (  1339 PWs)   bands (ev):

   -88.7137 -49.1384 -49.1219 -49.1219  -4.7742   7.3361   9.9689   9.9689
    11.5809  13.2185  13.6345  13.6345  13.8914  20.9288  24.9876  26.9864
    31.0659  31.0659  43.3865  44.7494  47.3882  47.3882  49.1299  51.3671
    51.4456  51.4456  51.5276  59.1608  59.1608  61.9944

          k = 0.0000 0.0000 0.8947 (  1338 PWs)   bands (ev):

   -88.7135 -49.1393 -49.1223 -49.1223  -4.7334   7.3491   9.9590   9.9590
    11.5495  13.2320  13.6232  13.6232  13.8296  20.8677  24.9513  26.9218
    31.1049  31.1049  43.2606  45.3193  47.2605  47.2605  48.3187  51.7405
    52.6007  52.6007  53.1214  58.4334  58.4334  60.1918

          k = 0.0000 0.0000 0.9474 (  1350 PWs)   bands (ev):

   -88.7135 -49.1403 -49.1227 -49.1227  -4.7089   7.3619   9.9536   9.9536
    11.5302  13.2400  13.6148  13.6148  13.7863  20.8216  24.9402  26.8833
    31.1314  31.1314  43.1846  45.8947  47.1785  47.1785  47.5982  51.9880
    53.6222  53.6222  54.7221  57.5898  57.5898  58.4562

          k = 0.0000 0.0000 1.0000 (  1338 PWs)   bands (ev):

   -88.7134 -49.1401 -49.1226 -49.1226  -4.7007   7.3671   9.9519   9.9519
    11.5238  13.2431  13.6122  13.6122  13.7710  20.8049  24.9383  26.8705
    31.1408  31.1408  43.1592  46.2549  47.1504  47.1504  47.1897  52.0752
    54.1149  54.1149  55.8763  57.1389  57.1389  57.2567

          k = 0.0000 0.0000 1.0000 (  1338 PWs)   bands (ev):

   -88.7134 -49.1401 -49.1226 -49.1226  -4.7007   7.3671   9.9519   9.9519
    11.5238  13.2431  13.6122  13.6122  13.7710  20.8049  24.9383  26.8705
    31.1408  31.1408  43.1592  46.2549  47.1504  47.1504  47.1897  52.0752
    54.1149  54.1149  55.8763  57.1389  57.1389  57.2567

          k =-0.0000 0.0395 0.9868 (  1348 PWs)   bands (ev):

   -88.7135 -49.1403 -49.1229 -49.1228  -4.6996   7.3717   9.9200   9.9235
    11.5567  13.2633  13.6112  13.6121  13.7767  20.8304  24.9372  26.8387
    31.1002  31.1962  43.1846  45.7474  47.1533  47.1659  47.6261  52.1070
    53.9800  54.0933  55.6665  57.2049  57.2257  57.5848

          k = 0.0000 0.0789 0.9737 (  1343 PWs)   bands (ev):

   -88.7135 -49.1401 -49.1230 -49.1225  -4.6963   7.3855   9.8322   9.8428
    11.6477  13.3194  13.6093  13.6127  13.7959  20.9066  24.9342  26.7483
    30.9812  31.3575  43.2583  44.9475  47.1041  47.1616  48.3122  52.1942
    53.5749  54.0721  55.4190  57.2723  57.4589  58.3039

          k =-0.0000 0.1184 0.9605 (  1337 PWs)   bands (ev):

   -88.7134 -49.1396 -49.1232 -49.1224  -4.6911   7.4079   9.7052   9.7213
    11.7794  13.3942  13.6064  13.6138  13.8333  21.0316  24.9291  26.6124
    30.7905  31.6118  43.3657  44.1254  47.0079  47.1733  48.9141  52.3228
    52.9804  54.1432  55.3190  57.3756  57.7843  59.0449

          k = 0.0000 0.1579 0.9474 (  1332 PWs)   bands (ev):

   -88.7134 -49.1389 -49.1234 -49.1223  -4.6842   7.4380   9.5548   9.5734
    11.9355  13.4649  13.6047  13.6152  13.8956  21.2023  24.9219  26.4467
    30.5391  31.9437  43.1922  43.6224  46.8849  47.1849  49.3479  52.3146
    52.5030  54.3717  55.3167  57.5168  58.1603  59.5436

          k =-0.0000 0.1974 0.9342 (  1340 PWs)   bands (ev):

   -88.7135 -49.1384 -49.1240 -49.1226  -4.6760   7.4743   9.3925   9.4140
    12.1034  13.5074  13.6123  13.6167  13.9851  21.4139  24.9119  26.2654
    30.2410  32.3389  42.4036  43.7751  46.7418  47.1899  49.5762  51.6486
    52.7680  54.7476  55.3692  57.6928  58.5717  59.6678

          k = 0.0000 0.2368 0.9211 (  1336 PWs)   bands (ev):

   -88.7134 -49.1377 -49.1246 -49.1223  -4.6670   7.5147   9.2260   9.2562
    12.2751  13.5123  13.6185  13.6358  14.0953  21.6594  24.8983  26.0801
    29.9138  32.7865  41.5911  43.9885  46.5839  47.1776  49.6301  51.0221
    53.1213  55.2000  55.4577  57.8964  59.0182  59.5940

          k = 0.0000 0.2763 0.9079 (  1333 PWs)   bands (ev):

   -88.7134 -49.1368 -49.1253 -49.1221  -4.6576   7.5568   9.0604   9.1114
    12.4440  13.4935  13.6206  13.6650  14.2135  21.9297  24.8784  25.8989
    29.5777  33.2779  40.7899  44.2215  46.4150  47.1307  49.5822  50.4657
    53.5271  55.5739  55.6381  58.1097  59.3639  59.4570

          k =-0.0000 0.3158 0.8947 (  1336 PWs)   bands (ev):

   -88.7135 -49.1361 -49.1262 -49.1220  -4.6483   7.5970   8.8989   8.9896
    12.6060  13.4611  13.6228  13.6936  14.3292  22.2133  24.8477  25.7281
    29.2569  33.8071  40.0040  44.4632  46.2390  47.0255  49.4971  50.0107
    53.9416  55.7140  55.9915  58.2839  59.3438  59.3652

          k = 0.0000 0.3553 0.8816 (  1338 PWs)   bands (ev):

   -88.7135 -49.1352 -49.1271 -49.1219  -4.6396   7.6323   8.7439   8.8987
    12.7577  13.4180  13.6253  13.7214  14.4358  22.4968  24.7987  25.5714
    28.9791  34.3694  39.2348  44.7048  46.0609  46.8379  49.4141  49.6854
    54.3238  55.8763  56.2480  58.3156  59.3398  59.3705

          k =-0.0000 0.3947 0.8684 (  1344 PWs)   bands (ev):

   -88.7135 -49.1345 -49.1281 -49.1219  -4.6320   7.6602   8.5971   8.8443
    12.8966  13.3646  13.6279  13.7488  14.5294  22.7653  24.7222  25.4316
    28.7744  34.9611  38.4831  44.9359  45.8902  46.5600  49.3513  49.5006
    54.6325  56.0597  56.4568  58.1576  59.3671  59.5883

          k = 0.0000 0.4342 0.8553 (  1340 PWs)   bands (ev):

   -88.7135 -49.1337 -49.1289 -49.1214  -4.6257   7.6811   8.4596   8.8278
    13.0211  13.3016  13.6311  13.7763  14.6072  23.0030  24.6122  25.3101
    28.6701  35.5788  37.7495  45.1350  45.7491  46.2095  49.3130  49.4409
    54.8375  56.2635  56.6853  57.8837  59.4457  59.9223

          k =-0.0000 0.4737 0.8421 (  1342 PWs)   bands (ev):

   -88.7135 -49.1332 -49.1299 -49.1210  -4.6211   7.6985   8.3323   8.8463
    13.1297  13.2285  13.6345  13.8036  14.6667  23.1914  24.4752  25.2072
    28.6821  36.2189  37.0352  45.2358  45.7055  45.8178  49.2958  49.4770
    54.9470  56.4866  56.9637  57.5508  59.5660  60.3108

          k =-0.0000 0.5132 0.8289 (  1345 PWs)   bands (ev):

   -88.7136 -49.1327 -49.1308 -49.1208  -4.6182   7.7180   8.2160   8.8931
    13.1463  13.2218  13.6388  13.8305  14.7062  23.3024  24.3438  25.1227
    28.8090  36.3422  36.8769  45.1828  45.4149  45.8155  49.2938  49.5811
    55.0062  56.7233  57.1872  57.2740  59.7191  60.7184

          k = 0.0000 0.5526 0.8158 (  1343 PWs)   bands (ev):

   -88.7136 -49.1320 -49.1317 -49.1205  -4.6169   7.7456   8.1109   8.9606
    13.0570  13.2976  13.6436  13.8570  14.7230  23.2982  24.2748  25.0555
    29.0332  35.6738  37.5463  45.0246  45.0640  45.9902  49.3032  49.7326
    55.0648  56.7412  57.0353  57.5809  59.8977  61.1079

          k =-0.0000 0.5921 0.8026 (  1347 PWs)   bands (ev):

   -88.7136 -49.1326 -49.1317 -49.1202  -4.6172   7.7861   8.0173   9.0404
    12.9621  13.3574  13.6487  13.8823  14.7155  23.1731  24.2998  25.0042
    29.3265  35.0360  38.2168  44.6675  44.9360  46.1687  49.3256  49.9166
    55.1564  56.3396  57.3025  57.8512  60.0927  61.4069

          k = 0.0000 0.6316 0.7895 (  1343 PWs)   bands (ev):

   -88.7135 -49.1334 -49.1312 -49.1197  -4.6187   7.8420   7.9356   9.1249
    12.8654  13.4031  13.6538  13.9055  14.6833  22.9797  24.3927  24.9668
    29.6553  34.4392  38.8714  44.3658  44.8137  46.3284  49.3706  50.1209
    55.2979  55.9066  57.6073  58.0534  60.2922  61.3888

          k = 0.0000 0.6711 0.7763 (  1336 PWs)   bands (ev):

   -88.7135 -49.1340 -49.1306 -49.1194  -4.6209   7.8657   7.9146   9.2064
    12.7709  13.4367  13.6579  13.9251  14.6266  22.7713  24.5219  24.9414
    29.9797  33.9021  39.4809  44.1508  44.7011  46.4558  49.4538  50.3328
    55.4660  55.4929  57.9346  58.1502  60.4812  60.6761

          k = 0.0000 0.7105 0.7632 (  1340 PWs)   bands (ev):

   -88.7135 -49.1347 -49.1302 -49.1195  -4.6236   7.8075   8.0033   9.2769
    12.6838  13.4604  13.6599  13.9384  14.5485  22.5789  24.6725  24.9257
    30.2481  33.4588  39.9981  44.0685  44.5993  46.5415  49.5920  50.5369
    55.0326  55.7351  58.0953  58.2825  59.6654  60.6390

          k = 0.0000 0.7500 0.7500 (  1334 PWs)   bands (ev):

   -88.7135 -49.1350 -49.1294 -49.1197  -4.6261   7.7611   8.1063   9.3282
    12.6109  13.4772  13.6590  13.9411  14.4576  22.4189  24.8379  24.9176
    30.3934  33.1633  40.3638  44.1749  44.5093  46.5831  49.7967  50.7105
    54.6278  56.0087  57.8575  58.6333  58.6638  60.7214

          k = 0.0000 0.7500 0.7500 (  1334 PWs)   bands (ev):

   -88.7135 -49.1350 -49.1294 -49.1197  -4.6261   7.7611   8.1063   9.3282
    12.6109  13.4772  13.6590  13.9411  14.4576  22.4189  24.8379  24.9176
    30.3934  33.1633  40.3638  44.1749  44.5093  46.5831  49.7967  50.7105
    54.6278  56.0087  57.8575  58.6333  58.6638  60.7214

          k = 0.0000 0.7105 0.7105 (  1338 PWs)   bands (ev):

   -88.7135 -49.1335 -49.1311 -49.1189  -4.6241   7.7988   7.8917   9.2197
    12.7966  13.4322  13.6656  13.9515  14.7321  22.8528  24.3142  24.9411
    30.2172  33.8099  39.5727  43.5203  44.7191  46.5397  49.1136  50.2929
    55.1982  55.6854  58.8437  59.4524  59.8552  60.6532

          k = 0.0000 0.6711 0.6711 (  1316 PWs)   bands (ev):

   -88.7135 -49.1317 -49.1313 -49.1178  -4.6346   7.5399   8.0392   9.1310
    12.9655  13.3820  13.6688  13.9521  14.9896  23.3048  23.7790  24.9862
    30.0614  34.5317  38.8374  42.8521  44.8135  46.5332  48.5054  49.9407
    54.4969  56.5494  59.7251  60.2141  60.5301  60.6264

          k = 0.0000 0.6316 0.6316 (  1330 PWs)   bands (ev):

   -88.7137 -49.1333 -49.1297 -49.1172  -4.6612   7.3395   8.2025   9.0655
    13.1097  13.3260  13.6646  13.9438  15.2160  23.2323  23.7818  25.0590
    29.9418  35.3153  38.1571  42.1729  44.7580  46.5603  47.9679  49.6616
    53.9740  57.2466  58.5659  59.8555  61.1905  61.8684

          k = 0.0000 0.5921 0.5921 (  1332 PWs)   bands (ev):

   -88.7139 -49.1341 -49.1278 -49.1163  -4.7063   7.2053   8.3805   9.0263
    13.2228  13.2657  13.6526  13.9291  15.4010  22.6948  24.2725  25.1658
    29.8743  36.1392  37.5309  41.4868  44.5544  46.6148  47.4780  49.4561
    53.6807  56.7128  57.8459  59.3940  62.0616  63.3970

          k =-0.0000 0.5526 0.5526 (  1336 PWs)   bands (ev):

   -88.7141 -49.1342 -49.1261 -49.1156  -4.7713   7.1427   8.5718   9.0150
    13.2013  13.2998  13.6306  13.9085  15.5336  22.1621  24.7903  25.3127
    29.8737  36.9575  36.9694  40.7988  44.2492  46.6877  47.0068  49.3187
    53.6349  54.8660  58.4046  58.6575  62.7978  64.6840

          k =-0.0000 0.5132 0.5132 (  1340 PWs)   bands (ev):

   -88.7143 -49.1340 -49.1243 -49.1148  -4.8563   7.1539   8.7750   9.0330
    13.1342  13.3388  13.5972  13.8813  15.6059  21.6368  25.3405  25.5054
    29.9524  36.4354  37.7523  40.1151  43.9210  46.5441  46.7668  49.2375
    53.0667  53.8202  57.7082  58.9575  63.2982  64.5890

          k =-0.0000 0.4737 0.4737 (  1336 PWs)   bands (ev):

   -88.7145 -49.1330 -49.1224 -49.1140  -4.9594   7.2391   8.9883   9.0810
    13.0652  13.3430  13.5522  13.8438  15.6131  21.1182  25.7486  25.9294
    30.1196  35.9631  38.4053  39.4424  43.6669  46.1055  46.8363  49.1813
    51.3506  54.2017  56.6161  59.5242  63.6051  63.7906

          k =-0.0000 0.4342 0.4342 (  1334 PWs)   bands (ev):

   -88.7148 -49.1314 -49.1205 -49.1133  -5.0778   7.3959   9.1593   9.2099
    12.9954  13.3188  13.4945  13.7924  15.5533  20.6044  26.0460  26.5611
    30.3804  35.5386  38.7872  38.8236  43.5789  45.7299  46.8743  48.9371
    49.9278  54.7463  55.4599  60.1159  62.5732  63.8211

          k =-0.0000 0.3947 0.3947 (  1344 PWs)   bands (ev):

   -88.7152 -49.1296 -49.1190 -49.1130  -5.2074   7.6202   9.2676   9.4375
    12.9256  13.2723  13.4243  13.7252  15.4287  20.0925  26.4006  27.2372
    30.7358  35.1600  38.1557  38.9417  43.6521  45.5014  46.8505  47.7318
    49.5661  54.3142  55.4290  60.7395  61.2137  64.0228

          k = 0.0000 0.3553 0.3553 (  1350 PWs)   bands (ev):

   -88.7155 -49.1277 -49.1174 -49.1125  -5.3434   7.9061   9.4054   9.6688
    12.8578  13.2086  13.3423  13.6445  15.2455  19.5798  26.8139  27.9558
    31.1835  34.8253  37.5538  38.8024  43.6870  45.5779  46.2136  46.7231
    49.6115  53.2503  56.2274  59.8481  61.3993  64.2503

          k = 0.0000 0.3158 0.3158 (  1353 PWs)   bands (ev):

   -88.7159 -49.1252 -49.1160 -49.1122  -5.4808   8.2465   9.5715   9.9012
    12.7928  13.1324  13.2496  13.5540  15.0115  19.0652  27.2866  28.7117
    31.7178  34.5325  36.9865  38.5130  43.5148  44.7185  46.0142  46.4406
    49.7225  52.3377  57.0520  58.6205  62.0979  64.5239

          k = 0.0000 0.2763 0.2763 (  1353 PWs)   bands (ev):

   -88.7162 -49.1225 -49.1146 -49.1118  -5.6146   8.6330   9.7644  10.1317
    12.7320  13.0468  13.1476  13.4588  14.7360  18.5495  27.8179  29.4951
    32.3312  34.2797  36.4573  38.1667  43.1941  43.2850  45.9592  46.6476
    49.8566  51.6321  56.8961  58.5707  62.8366  64.8547

          k = 0.0000 0.2368 0.2368 (  1353 PWs)   bands (ev):

   -88.7165 -49.1197 -49.1135 -49.1115  -5.7403   9.0558   9.9813  10.3567
    12.6764  12.9556  13.0382  13.3621  14.4299  18.0373  28.4056  30.2912
    33.0144  34.0648  35.9676  37.8232  41.9283  42.7991  45.2727  47.3356
    49.9977  51.1476  55.8105  59.6703  63.6156  65.2487

          k = 0.0000 0.1974 0.1974 (  1353 PWs)   bands (ev):

   -88.7168 -49.1169 -49.1126 -49.1112  -5.8537   9.5032  10.2188  10.5721
    12.6271  12.8632  12.9242  13.2644  14.1041  17.5377  29.0461  31.0789
    33.7559  33.8861  35.5149  37.5196  40.6631  42.3608  44.4251  48.0093
    50.1351  50.8486  54.7386  60.9892  64.4331  65.7077

          k = 0.0000 0.1579 0.1579 (  1349 PWs)   bands (ev):

   -88.7170 -49.1144 -49.1117 -49.1109  -5.9513   9.9601  10.4707  10.7728
    12.5856  12.7741  12.8091  13.1646  13.7708  17.0657  29.7322  31.8274
    33.7423  34.5407  35.0898  37.2805  39.5122  41.8970  43.4850  48.6398
    50.2602  50.6780  53.7687  62.4414  65.2846  66.2286

          k = 0.0000 0.1184 0.1184 (  1349 PWs)   bands (ev):

   -88.7172 -49.1126 -49.1111 -49.1106  -6.0302  10.4057  10.7268  10.9514
    12.5524  12.6908  12.6987  13.0609  13.4459  16.6443  30.4516  32.4949
    33.6319  34.6720  35.3452  37.1218  38.5132  41.4319  42.5223  49.2195
    50.3655  50.5861  52.9174  63.9982  66.1588  66.8000

          k = 0.0000 0.0789 0.0789 (  1361 PWs)   bands (ev):

   -88.7174 -49.1116 -49.1108 -49.1106  -6.0882  10.8077  10.9678  11.0972
    12.5280  12.6021  12.6129  12.9581  13.1526  16.3038  31.1791  33.0280
    33.5537  34.2320  36.1233  37.0473  37.7246  41.0089  41.6140  49.7513
    50.4452  50.5393  52.1875  65.6225  67.0258  67.3909

          k = 0.0000 0.0395 0.0395 (  1363 PWs)   bands (ev):

   -88.7175 -49.1108 -49.1106 -49.1105  -6.1236  11.1115  11.1561  11.1960
    12.5132  12.5336  12.5425  12.8767  12.9318  16.0795  31.8480  33.3728
    33.5072  33.7685  36.7671  37.0369  37.2174  40.6980  40.8860  50.2310
    50.4949  50.5178  51.5874  67.2117  67.7918  67.9156

          k = 0.0000 0.0000 0.0000 (  1363 PWs)   bands (ev):

   -88.7175 -49.1105 -49.1105 -49.1105  -6.1355  11.2315  11.2315  11.2315
    12.5083  12.5083  12.5083  12.8454  12.8454  16.0007  32.1983  33.4917
    33.4917  33.4917  37.0432  37.0432  37.0432  40.5809  40.5809  50.5117
    50.5117  50.5117  51.2663  68.1554  68.1554  68.1554

          k = 0.0000 0.0000 0.0000 (  1363 PWs)   bands (ev):

   -88.7175 -49.1105 -49.1105 -49.1105  -6.1355  11.2315  11.2315  11.2315
    12.5083  12.5083  12.5083  12.8454  12.8454  16.0007  32.1983  33.4917
    33.4917  33.4917  37.0432  37.0432  37.0432  40.5809  40.5809  50.5117
    50.5117  50.5117  51.2663  68.1554  68.1554  68.1554

          k =-0.0263 0.0263 0.0263 (  1363 PWs)   bands (ev):

   -88.7175 -49.1107 -49.1105 -49.1105  -6.1276  11.1588  11.1893  11.1893
    12.5184  12.5184  12.5316  12.8858  12.8858  16.0533  31.9474  33.4715
    33.4715  33.6631  36.9537  36.9537  37.1426  40.7264  40.7264  50.3045
    50.5106  50.5106  51.4955  67.6063  67.6064  68.1724

          k =-0.0526 0.0526 0.0526 (  1363 PWs)   bands (ev):

   -88.7174 -49.1114 -49.1106 -49.1106  -6.1039  10.9608  11.0759  11.0759
    12.5429  12.5429  12.5883  12.9997  12.9997  16.2047  31.4124  33.4052
    33.4052  33.9638  36.7364  36.7364  37.4371  41.1166  41.1166  49.9223
    50.5072  50.5072  51.9442  66.5473  66.5473  68.2232

          k =-0.0789 0.0789 0.0789 (  1357 PWs)   bands (ev):

   -88.7173 -49.1122 -49.1107 -49.1107  -6.0648  10.6761  10.9169  10.9169
    12.5752  12.5752  12.6568  13.1674  13.1674  16.4379  30.7833  33.2784
    33.2784  34.2226  36.4897  36.4897  37.9101  41.6646  41.6647  49.4967
    50.5021  50.5021  52.4835  65.4008  65.4008  68.3079

          k =-0.1053 0.1053 0.1053 (  1351 PWs)   bands (ev):

   -88.7171 -49.1133 -49.1109 -49.1109  -6.0110  10.3357  10.7341  10.7341
    12.6142  12.6142  12.7260  13.3676  13.3676  16.7325  30.1227  33.0748
    33.0748  34.4138  36.2937  36.2937  38.5271  42.3018  42.3018  49.0459
    50.4965  50.4965  53.0992  64.2689  64.2689  68.4262

          k =-0.1316 0.1316 0.1316 (  1357 PWs)   bands (ev):

   -88.7170 -49.1153 -49.1113 -49.1113  -5.9435   9.9620  10.5411  10.5411
    12.6595  12.6595  12.7933  13.5852  13.5852  17.0682  29.4565  32.7888
    32.7888  34.5530  36.1916  36.1916  39.2479  42.9817  42.9817  48.5765
    50.4938  50.4938  53.7912  63.1867  63.1867  68.5779

          k =-0.1579 0.1579 0.1579 (  1354 PWs)   bands (ev):

   -88.7168 -49.1175 -49.1115 -49.1115  -5.8634   9.5701  10.3468  10.3468
    12.7115  12.7115  12.8601  13.8104  13.8105  17.4281  28.7998  32.4319
    32.4319  34.6606  36.1937  36.1937  40.0366  43.6687  43.6687  48.0992
    50.5015  50.5015  54.5598  62.1733  62.1733  68.7626

          k =-0.1842 0.1842 0.1842 (  1342 PWs)   bands (ev):

   -88.7165 -49.1198 -49.1114 -49.1114  -5.7722   9.1713  10.1565  10.1565
    12.7692  12.7692  12.9287  14.0371  14.0372  17.7978  28.1636  32.0269
    32.0269  34.7524  36.2901  36.2901  40.8591  44.3272  44.3272  47.6343
    50.5342  50.5342  55.4026  61.2429  61.2429  68.9799

          k =-0.2105 0.2105 0.2105 (  1339 PWs)   bands (ev):

   -88.7163 -49.1224 -49.1117 -49.1117  -5.6719   8.7740   9.9736   9.9736
    12.8313  12.8313  13.0003  14.2600  14.2600  18.1653  27.5566  31.5976
    31.5976  34.8388  36.4655  36.4655  41.6726  44.9148  44.9148  47.2199
    50.6169  50.6169  56.3147  60.4078  60.4078  69.2292

          k =-0.2368 0.2368 0.2368 (  1345 PWs)   bands (ev):

   -88.7160 -49.1252 -49.1122 -49.1122  -5.5646   8.3855   9.8009   9.8009
    12.8963  12.8963  13.0757  14.4756  14.4756  18.5199  26.9871  31.1636
    31.1636  34.9270  36.7058  36.7058  42.4043  45.3803  45.3803  46.9299
    50.7861  50.7861  57.2897  59.6786  59.6786  69.5094

          k =-0.2632 0.2632 0.2632 (  1345 PWs)   bands (ev):

   -88.7158 -49.1279 -49.1126 -49.1126  -5.4528   8.0119   9.6402   9.6402
    12.9629  12.9629  13.1552  14.6814  14.6814  18.8516  26.4633  30.7397
    30.7397  35.0213  37.0005  37.0005  42.9286  45.6737  45.6737  46.8949
    51.0793  51.0793  58.3192  59.0643  59.0643  69.0215

          k =-0.2895 0.2895 0.2895 (  1350 PWs)   bands (ev):

   -88.7156 -49.1306 -49.1131 -49.1131  -5.3392   7.6588   9.4931   9.4931
    13.0291  13.0291  13.2379  14.8743  14.8743  19.1512  25.9930  30.3368
    30.3368  35.1244  37.3411  37.3411  43.1184  45.7676  45.7676  47.2489
    51.5132  51.5133  58.5718  58.5718  59.3915  68.0976

          k =-0.3158 0.3158 0.3158 (  1353 PWs)   bands (ev):

   -88.7154 -49.1331 -49.1136 -49.1136  -5.2270   7.3314   9.3609   9.3609
    13.0933  13.0933  13.3227  15.0519  15.0519  19.4103  25.5836  29.9634
    29.9634  35.2371  37.7208  37.7208  42.9948  45.6712  45.6712  47.9790
    52.0679  52.0679  58.2075  58.2075  60.4881  66.9967

          k =-0.3421 0.3421 0.3421 (  1356 PWs)   bands (ev):

   -88.7152 -49.1356 -49.1140 -49.1140  -5.1197   7.0348   9.2446   9.2446
    13.1535  13.1535  13.4067  15.2120  15.2120  19.6224  25.2406  29.6263
    29.6263  35.3583  38.1322  38.1322  42.6937  45.4211  45.4211  48.9588
    52.6930  52.6930  57.9793  57.9793  61.5644  65.8061

          k =-0.3684 0.3684 0.3684 (  1350 PWs)   bands (ev):

   -88.7149 -49.1376 -49.1142 -49.1142  -5.0205   6.7738   9.1449   9.1449
    13.2084  13.2084  13.4877  15.3523  15.3523  19.7844  24.9668  29.3311
    29.3311  35.4853  38.5668  38.5668  42.3259  45.0627  45.0627  50.0882
    53.3232  53.3232  57.8996  57.8996  62.4238  64.7593

          k =-0.3947 0.3947 0.3947 (  1344 PWs)   bands (ev):

   -88.7147 -49.1394 -49.1143 -49.1143  -4.9333   6.5528   9.0626   9.0626
    13.2559  13.2559  13.5616  15.4705  15.4705  19.8978  24.7607  29.0828
    29.0828  35.6121  39.0125  39.0125  41.9567  44.6403  44.6403  51.3137
    53.8879  53.8879  57.9827  57.9828  62.2080  64.7351

          k =-0.4211 0.4211 0.4211 (  1344 PWs)   bands (ev):

   -88.7146 -49.1410 -49.1145 -49.1145  -4.8612   6.3761   8.9980   8.9980
    13.2944  13.2944  13.6246  15.5647  15.5648  19.9690  24.6162  28.8851
    28.8851  35.7303  39.4499  39.4499  41.6269  44.1982  44.1982  52.6075
    54.3280  54.3280  58.2248  58.2248  61.0184  65.6294

          k =-0.4474 0.4474 0.4474 (  1344 PWs)   bands (ev):

   -88.7145 -49.1421 -49.1146 -49.1146  -4.8073   6.2470   8.9516   8.9516
    13.3228  13.3228  13.6731  15.6334  15.6334  20.0083  24.5237  28.7415
    28.7415  35.8283  39.8452  39.8452  41.3669  43.7878  43.7878  53.9531
    54.6196  54.6196  58.5681  58.5681  59.6274  66.5068

          k =-0.4737 0.4737 0.4737 (  1350 PWs)   bands (ev):

   -88.7145 -49.1431 -49.1147 -49.1147  -4.7739   6.1684   8.9236   8.9236
    13.3402  13.3402  13.7034  15.6751  15.6751  20.0264  24.4733  28.6542
    28.6542  35.8938  40.1399  40.1399  41.2000  43.4796  43.4796  54.7773
    54.7773  55.3374  58.1964  58.8842  58.8842  65.8591

          k =-0.5000 0.5000 0.5000 (  1350 PWs)   bands (ev):

   -88.7144 -49.1434 -49.1148 -49.1148  -4.7626   6.1420   8.9143   8.9143
    13.3461  13.3461  13.7138  15.6891  15.6891  20.0314  24.4574  28.6250
    28.6250  35.9170  40.2531  40.2531  41.1424  43.3612  43.3612  54.8262
    54.8262  56.6471  56.8691  59.0154  59.0154  65.6213

     Writing all to output data dir ./tmp/nio.save/ :
     XML data file, pseudopotentials, collected wavefunctions

     init_run     :      0.97s CPU      0.90s WALL (       1 calls)
     electrons    :    797.88s CPU    193.21s WALL (       1 calls)

     Called by init_run:
     wfcinit      :      0.00s CPU      0.00s WALL (       1 calls)
     wfcinit:atom :      0.06s CPU      0.01s WALL (      80 calls)
     wfcinit:wfcr :     21.86s CPU      5.48s WALL (      80 calls)
     potinit      :      0.32s CPU      0.29s WALL (       1 calls)
     hinit0       :      0.55s CPU      0.54s WALL (       1 calls)

     Called by electrons:
     c_bands      :    797.88s CPU    193.21s WALL (       1 calls)
     v_of_rho     :      0.02s CPU      0.01s WALL (       1 calls)
     v_h          :      0.00s CPU      0.00s WALL (       1 calls)
     v_xc         :      0.02s CPU      0.01s WALL (       1 calls)
     newd         :      0.10s CPU      0.05s WALL (       1 calls)
     PAW_pot      :      0.09s CPU      0.06s WALL (       1 calls)

     Called by c_bands:
     init_us_2    :      0.12s CPU      0.02s WALL (      80 calls)
     cegterg      :    775.39s CPU    187.61s WALL (     188 calls)

     Called by sum_band:

     Called by *egterg:
     cdiaghg      :     11.78s CPU      2.06s WALL (    3329 calls)
     cegterg:over :      4.98s CPU      0.74s WALL (    3249 calls)
     cegterg:upda :      4.53s CPU      0.76s WALL (    3249 calls)
     cegterg:last :      6.03s CPU      0.98s WALL (    2754 calls)
     h_psi        :    763.05s CPU    187.34s WALL (    3517 calls)
     s_psi        :      1.13s CPU      0.24s WALL (    3517 calls)
     g_psi        :      1.39s CPU      0.21s WALL (    3249 calls)

     Called by h_psi:
     h_psi:calbec :      1.31s CPU      0.36s WALL (    3517 calls)
     vloc_psi     :    758.49s CPU    186.36s WALL (    3517 calls)
                                        0.00s GPU  (    3517 calls)
     add_vuspsi   :      1.61s CPU      0.34s WALL (    3517 calls)

     General routines
     calbec       :      1.29s CPU      0.35s WALL (    3517 calls)
     fft          :      0.37s CPU      0.35s WALL (      13 calls)
     ffts         :      0.20s CPU      0.21s WALL (       1 calls)
     fftw         :    724.49s CPU    178.40s WALL (  166760 calls)
     interpolate  :      0.20s CPU      0.21s WALL (       1 calls)
     davcio       :      0.07s CPU      0.01s WALL (     160 calls)

     Parallel routines

     PAW routines
     PAW_pot      :      0.09s CPU      0.06s WALL (       1 calls)

     PWSCF        :  13m19.07s CPU   3m14.22s WALL


   This run was terminated on:   4:38:13   6Mar2026            

=------------------------------------------------------------------------------=
   JOB DONE.
=------------------------------------------------------------------------------=
