Compiler and run-time data
===============================================================================
RASPA 3.0.16

Random seed: 3496735911

Compiled as a 64-bits application
Compiler: gcc Ubuntu Clang 18.1.3 (1ubuntu1)
Compile Date = Oct 27 2025, Compile Time = 19:32:18

2026-03-06 08:51:13.434119
Simulation started on Fri, Mar 06
The start time was 08:51:00

Hostname:    3f38bf73fdc4
OS type:     Linux on x86_64
OS release:  6.17.0-14-generic
OS version:  #14~24.04.1-Ubuntu SMP PREEMPT_DYNAMIC Thu Jan 15 15:52:10 UTC 2


Mutual consistent basic set of units:
===============================================================================

Unit of temperature: 1 [K]
Unit of length:      1e-10 [m]
Unit of time:        1e-12 [s]
Unit of mass:        1.6605402e-27 [kg]
Unit of charge:      1.60217733e-19 [C/particle]


Boltzmann constant (internal units):          0.8314464919307584 [-]
represents conversion from energy (internal units) to temperature (in Kelvin)

Derived units and their conversion factors:
===============================================================================

Unit of energy:                           1.6605402000000002e-23 [J]
Unit of energy:                           10.000008872307538 [J.mol⁻¹]
Unit of velocity:                         100 [m.s⁻¹]
Unit of force:                            1.6605402000000002e-13 [N]
Unit of diffusion:                        1e-08 [m².s⁻¹]
Unit of acceleration:                     1e-08 [m².s⁻¹]
Unit of torque:                           1.6605402000000002e-23 [N.m]
Unit of pressure:                         16605402 [Pa]
Unit of volume:                           1e-30 [m³]
Unit of density:                          1660.5402 [kg.m⁻³]
Unit of dynamic viscosity:                1.6605401999999997e-05 [N.s.m⁻²]
Unit of enthalpy:                         1.6605402000000002e-23 [J]
Unit of polarizability:                   1.5458657349975198e-35 [-]
Unit of Coulomb potential:                167101.08000665612 [K]
Unit of dielectric constant:              1.5458657349975193e-05 [s².C².kg⁻¹.m⁻³]
Unit of dipole moment:                    1.60217733e-29 [C.m]
Unit of Debye:                            4.803206799099162 [C.m]
Unit of electric potential:               0.00010364272224473431 [V]
Unit of electric field:                   1036427.222447343 [V.m⁻¹]
Unit of isothermal compressibility:       6.02213665167516e-08 [Pa⁻¹]
Unit of heat capacity:                    10.000008872307538 [J.mol⁻¹.K⁻¹]
Unit of volumetric expansion coefficient: 1 [K⁻¹]


Internal conversion factors:
===============================================================================

Energy (internal units) to Kelvin:      1.202724284692786 [-]
Kelvin to energy (internal units):      0.8314457542157567 [-]


System definitions
===============================================================================

Temperature:          298 [K]
Beta:                 0.004035983951527738 [-]
Pressure:             1e+06 [Pa]
Helium void fraction: 0.64 [-]

Box:      20.81000   0.00000   0.00000
           0.00000  20.81000   0.00000
           0.00000   0.00000  20.81000
Lengths:  20.81000  20.81000  20.81000
Angles:   90.00000  90.00000  90.00000
Rectangular boundary conditions
Perpendicular widths:   20.81000  20.81000  20.81000




Property measurement settings
===============================================================================




Pseudo-atoms
===============================================================================

  0 - Zr01     framework-atom: true
  1 - O001     framework-atom: true
  2 - O002     framework-atom: true
  3 - C001     framework-atom: true
  4 - C002     framework-atom: true
  5 - C003     framework-atom: true
  6 - H003     framework-atom: true
  7 - C_co2    framework-atom: false
  8 - O_co2    framework-atom: false

  0 - Zr01     mass: 91.22400, charge:  0.00000
  1 - O001     mass: 15.99940, charge:  0.00000
  2 - O002     mass: 15.99940, charge:  0.00000
  3 - C001     mass: 12.01070, charge:  0.00000
  4 - C002     mass: 12.01070, charge:  0.00000
  5 - C003     mass: 12.01070, charge:  0.00000
  6 - H003     mass:  1.00794, charge:  0.00000
  7 - C_co2    mass: 12.00000, charge:  0.65120
  8 - O_co2    mass: 15.99940, charge: -0.32560

  0 - Zr01     polarizability:  0.00000
  1 - O001     polarizability:  0.00000
  2 - O002     polarizability:  0.00000
  3 - C001     polarizability:  0.00000
  4 - C002     polarizability:  0.00000
  5 - C003     polarizability:  0.00000
  6 - H003     polarizability:  0.00000
  7 - C_co2    polarizability:  0.00000
  8 - O_co2    polarizability:  0.00000


Force field status
===============================================================================

Cutoff Framework-Molecule VDW:  12.00000 [Å]
Cutoff Molecule-Molecule VDW:   12.00000 [Å]
Cutoff Coulomb:                 auto
Overlap-criteria VDW:           1.000000e+06 [K]

Zr01     - Zr01     Lennard-Jones p₀/kʙ:  34.72200 [K], p₁:  2.78300 [Å]
                                  shift:  -0.02161 [K], tailcorrections: false
Zr01     - O001     Lennard-Jones p₀/kʙ:  40.89188 [K], p₁:  2.90808 [Å]
                                  shift:  -0.03312 [K], tailcorrections: false
Zr01     - O002     Lennard-Jones p₀/kʙ:  40.89188 [K], p₁:  2.90808 [Å]
                                  shift:  -0.03312 [K], tailcorrections: false
Zr01     - C001     Lennard-Jones p₀/kʙ:  40.76350 [K], p₁:  3.12799 [Å]
                                  shift:  -0.05113 [K], tailcorrections: false
Zr01     - C002     Lennard-Jones p₀/kʙ:  40.76350 [K], p₁:  3.12799 [Å]
                                  shift:  -0.05113 [K], tailcorrections: false
Zr01     - C003     Lennard-Jones p₀/kʙ:  40.76350 [K], p₁:  3.12799 [Å]
                                  shift:  -0.05113 [K], tailcorrections: false
Zr01     - H003     Lennard-Jones p₀/kʙ:  16.29681 [K], p₁:  2.81471 [Å]
                                  shift:  -0.01085 [K], tailcorrections: false
Zr01     - C_co2    Lennard-Jones p₀/kʙ:  32.23870 [K], p₁:  2.76400 [Å]
                                  shift:  -0.01925 [K], tailcorrections: false
Zr01     - O_co2    Lennard-Jones p₀/kʙ:  54.54052 [K], p₁:  2.90000 [Å]
                                  shift:  -0.04345 [K], tailcorrections: false
O001     - O001     Lennard-Jones p₀/kʙ:  48.15810 [K], p₁:  3.03315 [Å]
                                  shift:  -0.05022 [K], tailcorrections: false
O001     - O002     Lennard-Jones p₀/kʙ:  48.15810 [K], p₁:  3.03315 [Å]
                                  shift:  -0.05022 [K], tailcorrections: false
O001     - C001     Lennard-Jones p₀/kʙ:  48.00691 [K], p₁:  3.25307 [Å]
                                  shift:  -0.07618 [K], tailcorrections: false
O001     - C002     Lennard-Jones p₀/kʙ:  48.00691 [K], p₁:  3.25307 [Å]
                                  shift:  -0.07618 [K], tailcorrections: false
O001     - C003     Lennard-Jones p₀/kʙ:  48.00691 [K], p₁:  3.25307 [Å]
                                  shift:  -0.07618 [K], tailcorrections: false
O001     - H003     Lennard-Jones p₀/kʙ:  19.19265 [K], p₁:  2.93979 [Å]
                                  shift:  -0.01659 [K], tailcorrections: false
O001     - C_co2    Lennard-Jones p₀/kʙ:  37.96731 [K], p₁:  2.88908 [Å]
                                  shift:  -0.02957 [K], tailcorrections: false
O001     - O_co2    Lennard-Jones p₀/kʙ:  64.23202 [K], p₁:  3.02508 [Å]
                                  shift:  -0.06592 [K], tailcorrections: false
O002     - O002     Lennard-Jones p₀/kʙ:  48.15810 [K], p₁:  3.03315 [Å]
                                  shift:  -0.05022 [K], tailcorrections: false
O002     - C001     Lennard-Jones p₀/kʙ:  48.00691 [K], p₁:  3.25307 [Å]
                                  shift:  -0.07618 [K], tailcorrections: false
O002     - C002     Lennard-Jones p₀/kʙ:  48.00691 [K], p₁:  3.25307 [Å]
                                  shift:  -0.07618 [K], tailcorrections: false
O002     - C003     Lennard-Jones p₀/kʙ:  48.00691 [K], p₁:  3.25307 [Å]
                                  shift:  -0.07618 [K], tailcorrections: false
O002     - H003     Lennard-Jones p₀/kʙ:  19.19265 [K], p₁:  2.93979 [Å]
                                  shift:  -0.01659 [K], tailcorrections: false
O002     - C_co2    Lennard-Jones p₀/kʙ:  37.96731 [K], p₁:  2.88908 [Å]
                                  shift:  -0.02957 [K], tailcorrections: false
O002     - O_co2    Lennard-Jones p₀/kʙ:  64.23202 [K], p₁:  3.02508 [Å]
                                  shift:  -0.06592 [K], tailcorrections: false
C001     - C001     Lennard-Jones p₀/kʙ:  47.85620 [K], p₁:  3.47299 [Å]
                                  shift:  -0.11243 [K], tailcorrections: false
C001     - C002     Lennard-Jones p₀/kʙ:  47.85620 [K], p₁:  3.47299 [Å]
                                  shift:  -0.11243 [K], tailcorrections: false
C001     - C003     Lennard-Jones p₀/kʙ:  47.85620 [K], p₁:  3.47299 [Å]
                                  shift:  -0.11243 [K], tailcorrections: false
C001     - H003     Lennard-Jones p₀/kʙ:  19.13240 [K], p₁:  3.15970 [Å]
                                  shift:  -0.02550 [K], tailcorrections: false
C001     - C_co2    Lennard-Jones p₀/kʙ:  37.84811 [K], p₁:  3.10900 [Å]
                                  shift:  -0.04577 [K], tailcorrections: false
C001     - O_co2    Lennard-Jones p₀/kʙ:  64.03037 [K], p₁:  3.24499 [Å]
                                  shift:  -0.10011 [K], tailcorrections: false
C002     - C002     Lennard-Jones p₀/kʙ:  47.85620 [K], p₁:  3.47299 [Å]
                                  shift:  -0.11243 [K], tailcorrections: false
C002     - C003     Lennard-Jones p₀/kʙ:  47.85620 [K], p₁:  3.47299 [Å]
                                  shift:  -0.11243 [K], tailcorrections: false
C002     - H003     Lennard-Jones p₀/kʙ:  19.13240 [K], p₁:  3.15970 [Å]
                                  shift:  -0.02550 [K], tailcorrections: false
C002     - C_co2    Lennard-Jones p₀/kʙ:  37.84811 [K], p₁:  3.10900 [Å]
                                  shift:  -0.04577 [K], tailcorrections: false
C002     - O_co2    Lennard-Jones p₀/kʙ:  64.03037 [K], p₁:  3.24499 [Å]
                                  shift:  -0.10011 [K], tailcorrections: false
C003     - C003     Lennard-Jones p₀/kʙ:  47.85620 [K], p₁:  3.47299 [Å]
                                  shift:  -0.11243 [K], tailcorrections: false
C003     - H003     Lennard-Jones p₀/kʙ:  19.13240 [K], p₁:  3.15970 [Å]
                                  shift:  -0.02550 [K], tailcorrections: false
C003     - C_co2    Lennard-Jones p₀/kʙ:  37.84811 [K], p₁:  3.10900 [Å]
                                  shift:  -0.04577 [K], tailcorrections: false
C003     - O_co2    Lennard-Jones p₀/kʙ:  64.03037 [K], p₁:  3.24499 [Å]
                                  shift:  -0.10011 [K], tailcorrections: false
H003     - H003     Lennard-Jones p₀/kʙ:   7.64893 [K], p₁:  2.84642 [Å]
                                  shift:  -0.00545 [K], tailcorrections: false
H003     - C_co2    Lennard-Jones p₀/kʙ:  15.13127 [K], p₁:  2.79571 [Å]
                                  shift:  -0.00968 [K], tailcorrections: false
H003     - O_co2    Lennard-Jones p₀/kʙ:  25.59866 [K], p₁:  2.93171 [Å]
                                  shift:  -0.02177 [K], tailcorrections: false
C_co2    - C_co2    Lennard-Jones p₀/kʙ:  29.93300 [K], p₁:  2.74500 [Å]
                                  shift:  -0.01715 [K], tailcorrections: false
C_co2    - O_co2    Lennard-Jones p₀/kʙ:  50.63981 [K], p₁:  2.88100 [Å]
                                  shift:  -0.03878 [K], tailcorrections: false
O_co2    - O_co2    Lennard-Jones p₀/kʙ:  85.67100 [K], p₁:  3.01700 [Å]
                                  shift:  -0.08653 [K], tailcorrections: false

Ewald precision: 1e-06
Ewald alpha: 0.3077428496806629
Ewald k-vectors: 7 7 7


Component definitions
===============================================================================

Framework 0 [UIO-66]

    Box:      20.81000   0.00000   0.00000
               0.00000  20.81000   0.00000
               0.00000   0.00000  20.81000
    Lengths:  20.81000  20.81000  20.81000
    Angles:   90.00000  90.00000  90.00000
    Perpendicular widths:   20.81000  20.81000  20.81000

    number Of Atoms:                   440 [-]
    mass:                       6640.11584 [amu]
      0: Zr01   position  0.37960  0.50000  0.50000, charge  0.00000
      1: O001   position  0.44180  0.55820  0.55820, charge  0.00000
      2: O002   position  0.32450  0.50000  0.40700, charge  0.00000
      3: C001   position  0.34660  0.50000  0.34660, charge  0.00000
      4: C002   position  0.29930  0.50000  0.29930, charge  0.00000
      5: C003   position  0.22990  0.50000  0.32200, charge  0.00000
      6: H003   position  0.21950  0.50000  0.36550, charge  0.00000
    use charge from: pseudo-atoms
    net charge:                      0.00000 [e]
    smallest charge:                 0.00000 [e]
    largest charge:                  0.00000 [e]
    number of bonds: 0

Component 0 [CO2]

    Type: Adsorbate

    Critical temperature:  304.1282 [K]
    Critical pressure:     7377300 [Pa]
    Acentric factor:       0.22394 [-]

    Mol-fraction:                 1 [-]
    Swappable:                   true

    Mass:                         43.9988 [-]
    Fugacity:                     1e+06 [Pa]
    Fugacity coefficient:         1 [-]
    Bulk fluid density:           18.81753135173618 [-]
    Compressibility:              0.9436862220328588 [-]
    Excess molecules:             1.4854875708728998 [-]

    Number Of Atoms:              3
    CBMC starting bead:           0
    Ideal gas Rosenbluth weight:  1.00000000
      0: O_co2  position  0.00000 -0.00000  1.14900, charge -0.32560
      1: C_co2  position  0.00000 -0.00000  0.00000, charge  0.65120
      2: O_co2  position  0.00000 -0.00000 -1.14900, charge -0.32560
    Diagonalized inertia-vector:      42.24484776 42.24484776 0.00000000
    Translational degrees of freedom: 3
    Rotational degrees of freedom:    2
    Shape of the molecule is: 'Linear'
    Net-charge:        0.00000000 [e]

    Move probabilities:
    Hybrid MC:                     0.000000 [-]
    Parallel tempering:            0.000000 [-]
    Widom (CB/CFCMC):              0.000000 [-]
    Widom (CFCMC):                 0.000000 [-]
    Widom:                         0.285714 [-]
    Gibbs swap (CFCMC):            0.000000 [-]
    Gibbs swap (CBMC):             0.000000 [-]
    Gibbs volume:                  0.000000 [-]
    Swap (CB/CFCMC):               0.000000 [-]
    Swap (CFCMC):                  0.000000 [-]
    Swap (CBMC):                   0.285714 [-]
    Swap:                          0.000000 [-]
    Identity change (CBMC):        0.000000 [-]
    Partial reinsertion (CBMC):    0.000000 [-]
    Reinsertion (CBMC):            0.142857 [-]
    Volume change:                 0.000000 [-]
    Random rotation:               0.000000 [-]
    Rotation:                      0.142857 [-]
    Random translation:            0.000000 [-]
    Translation:                   0.142857 [-]

    number of blocking-pockets: 0

    molecule is modelled as 'rigid'





Number of pseudo-atoms
===============================================================================

Component   0 (CO2)
-------------------------------------------------------------------------------
    index   0 (Zr01): 0 atoms
    index   1 (O001): 0 atoms
    index   2 (O002): 0 atoms
    index   3 (C001): 0 atoms
    index   4 (C002): 0 atoms
    index   5 (C003): 0 atoms
    index   6 (H003): 0 atoms
    index   7 (C_co2): 0 atoms
    index   8 (O_co2): 0 atoms

Total number of pseudo-atoms:
-------------------------------------------------------------------------------
    index   0 (Zr01): 0 atoms
    index   1 (O001): 0 atoms
    index   2 (O002): 0 atoms
    index   3 (C001): 0 atoms
    index   4 (C002): 0 atoms
    index   5 (C003): 0 atoms
    index   6 (H003): 0 atoms
    index   7 (C_co2): 0 atoms
    index   8 (O_co2): 0 atoms




Energy status Recomputed from scratch
===============================================================================

Total potential energy/kʙ        0.000000e+00 [K]
    external field VDW/kʙ        0.000000e+00 [K]
    external field Real/kʙ       0.000000e+00 [K]
    framework-molecule VDW/kʙ    0.000000e+00 [K]
    framework-molecule Real/kʙ   0.000000e+00 [K]
    molecule-molecule VDW/kʙ     0.000000e+00 [K]
    molecule-molecule Real/kʙ    0.000000e+00 [K]
    Van der Waals (Tail)/kʙ      0.000000e+00 [K]
    Ewald Fourier/kʙ             0.000000e+00 [K]
    Ewald self/kʙ                0.000000e+00 [K]
    Ewald exclusion/kʙ           0.000000e+00 [K]
    bond/kʙ                      0.000000e+00 [K]
    Urey-Bradley/kʙ              0.000000e+00 [K]
    bend/kʙ                      0.000000e+00 [K]
    inversion bend/kʙ            0.000000e+00 [K]
    out-of-plane bend/kʙ         0.000000e+00 [K]
    torsion/kʙ                   0.000000e+00 [K]
    improper torsion/kʙ          0.000000e+00 [K]
    bond-bond/kʙ                 0.000000e+00 [K]
    bond-bend/kʙ                 0.000000e+00 [K]
    bond-torsion/kʙ              0.000000e+00 [K]
    bend-bend/kʙ                 0.000000e+00 [K]
    bend-torsion/kʙ              0.000000e+00 [K]
    intra VDW/kʙ                 0.000000e+00 [K]
    intra Coulombic/kʙ           0.000000e+00 [K]
    polarization/kʙ              0.000000e+00 [K]
    dU/dlambda VDW/kʙ            0.000000e+00 [K]
    dU/dlambda Real/kʙ           0.000000e+00 [K]
    dU/dlambda Ewald/kʙ          0.000000e+00 [K]





Initialization: Current cycle: 0 out of 50000
===============================================================================

Box:      20.81000   0.00000   0.00000
           0.00000  20.81000   0.00000
           0.00000   0.00000  20.81000
Lengths:  20.81000  20.81000  20.81000
Angles:   90.00000  90.00000  90.00000
Rectangular boundary conditions
Perpendicular widths:   20.81000  20.81000  20.81000


Net charge:   0.00000000
Cutoff Coulomb:  10.40500 [Å]
Ewald alpha: 0.3077428496806629
Ewald k-vectors: 7 7 7


component   0 (CO2) lambda:  0 occupancy:  1 (1.000000)
    net charge:   0.00000000 [e]

Amount of molecules per component:
-------------------------------------------------------------------------------
Component 0 (CO2)
    absolute adsorption:  2.000000e+00 molecules
                          2.000000e+00 molecules/uc
                          3.011996e-01 mol/kg-framework
                          1.325242e+01 mg/g-framework
    excess adsorption:    5.145124e-01 molecules
                          5.145124e-01 molecules/uc
                          7.748546e-02 mol/kg-framework
                          3.409267e+00 mg/g-framework

Total potential energy/kʙ       -4.131173e+03 [K]
-------------------------------------------------------------------------------
    external field VDW/kʙ        0.000000e+00 [K]
    external field Real/kʙ       0.000000e+00 [K]
    framework-molecule VDW/kʙ   -4.131997e+03 [K]
    framework-molecule Real/kʙ   0.000000e+00 [K]
    molecule-molecule VDW/kʙ    -5.341169e-16 [K]
    molecule-molecule Real/kʙ    0.000000e+00 [K]
    Van der Waals (Tail)/kʙ      0.000000e+00 [K]
    Ewald Fourier/kʙ             2.005061e+02 [K]
    Ewald self/kʙ               -3.690985e+04 [K]
    Ewald exclusion/kʙ           3.671017e+04 [K]
    polarization/kʙ              0.000000e+00 [K]
    dU/dlambda VDW/kʙ            0.000000e+00 [K]
    dU/dlambda Real/kʙ           0.000000e+00 [K]
    dU/dlambda Ewald/kʙ          0.000000e+00 [K]


Initialization: Current cycle: 5000 out of 50000
===============================================================================

Box:      20.81000   0.00000   0.00000
           0.00000  20.81000   0.00000
           0.00000   0.00000  20.81000
Lengths:  20.81000  20.81000  20.81000
Angles:   90.00000  90.00000  90.00000
Rectangular boundary conditions
Perpendicular widths:   20.81000  20.81000  20.81000


Net charge:   0.00000000
Cutoff Coulomb:  10.40500 [Å]
Ewald alpha: 0.3077428496806629
Ewald k-vectors: 7 7 7


component   0 (CO2) lambda:  0 occupancy:  1 (1.000000)
    net charge:   0.00000000 [e]

Amount of molecules per component:
-------------------------------------------------------------------------------
Component 0 (CO2)
    absolute adsorption:  3.900000e+01 molecules
                          3.900000e+01 molecules/uc
                          5.873392e+00 mol/kg-framework
                          2.584222e+02 mg/g-framework
    excess adsorption:    3.751451e+01 molecules
                          3.751451e+01 molecules/uc
                          5.649677e+00 mol/kg-framework
                          2.485790e+02 mg/g-framework

Total potential energy/kʙ       -1.007715e+05 [K]
-------------------------------------------------------------------------------
    external field VDW/kʙ        0.000000e+00 [K]
    external field Real/kʙ       0.000000e+00 [K]
    framework-molecule VDW/kʙ   -8.519745e+04 [K]
    framework-molecule Real/kʙ   0.000000e+00 [K]
    molecule-molecule VDW/kʙ    -1.456097e+04 [K]
    molecule-molecule Real/kʙ   -9.830811e+02 [K]
    Van der Waals (Tail)/kʙ      0.000000e+00 [K]
    Ewald Fourier/kʙ             3.863829e+03 [K]
    Ewald self/kʙ               -7.197422e+05 [K]
    Ewald exclusion/kʙ           7.158484e+05 [K]
    polarization/kʙ              0.000000e+00 [K]
    dU/dlambda VDW/kʙ            0.000000e+00 [K]
    dU/dlambda Real/kʙ           0.000000e+00 [K]
    dU/dlambda Ewald/kʙ          0.000000e+00 [K]


Initialization: Current cycle: 10000 out of 50000
===============================================================================

Box:      20.81000   0.00000   0.00000
           0.00000  20.81000   0.00000
           0.00000   0.00000  20.81000
Lengths:  20.81000  20.81000  20.81000
Angles:   90.00000  90.00000  90.00000
Rectangular boundary conditions
Perpendicular widths:   20.81000  20.81000  20.81000


Net charge:   0.00000000
Cutoff Coulomb:  10.40500 [Å]
Ewald alpha: 0.3077428496806629
Ewald k-vectors: 7 7 7


component   0 (CO2) lambda:  0 occupancy:  1 (1.000000)
    net charge:   0.00000000 [e]

Amount of molecules per component:
-------------------------------------------------------------------------------
Component 0 (CO2)
    absolute adsorption:  3.500000e+01 molecules
                          3.500000e+01 molecules/uc
                          5.270992e+00 mol/kg-framework
                          2.319173e+02 mg/g-framework
    excess adsorption:    3.351451e+01 molecules
                          3.351451e+01 molecules/uc
                          5.047278e+00 mol/kg-framework
                          2.220742e+02 mg/g-framework

Total potential energy/kʙ       -8.886118e+04 [K]
-------------------------------------------------------------------------------
    external field VDW/kʙ        0.000000e+00 [K]
    external field Real/kʙ       0.000000e+00 [K]
    framework-molecule VDW/kʙ   -7.792404e+04 [K]
    framework-molecule Real/kʙ   0.000000e+00 [K]
    molecule-molecule VDW/kʙ    -1.027674e+04 [K]
    molecule-molecule Real/kʙ   -6.059365e+02 [K]
    Van der Waals (Tail)/kʙ      0.000000e+00 [K]
    Ewald Fourier/kʙ             3.439988e+03 [K]
    Ewald self/kʙ               -6.459224e+05 [K]
    Ewald exclusion/kʙ           6.424280e+05 [K]
    polarization/kʙ              0.000000e+00 [K]
    dU/dlambda VDW/kʙ            0.000000e+00 [K]
    dU/dlambda Real/kʙ           0.000000e+00 [K]
    dU/dlambda Ewald/kʙ          0.000000e+00 [K]


Initialization: Current cycle: 15000 out of 50000
===============================================================================

Box:      20.81000   0.00000   0.00000
           0.00000  20.81000   0.00000
           0.00000   0.00000  20.81000
Lengths:  20.81000  20.81000  20.81000
Angles:   90.00000  90.00000  90.00000
Rectangular boundary conditions
Perpendicular widths:   20.81000  20.81000  20.81000


Net charge:   0.00000000
Cutoff Coulomb:  10.40500 [Å]
Ewald alpha: 0.3077428496806629
Ewald k-vectors: 7 7 7


component   0 (CO2) lambda:  0 occupancy:  1 (1.000000)
    net charge:   0.00000000 [e]

Amount of molecules per component:
-------------------------------------------------------------------------------
Component 0 (CO2)
    absolute adsorption:  4.000000e+01 molecules
                          4.000000e+01 molecules/uc
                          6.023991e+00 mol/kg-framework
                          2.650484e+02 mg/g-framework
    excess adsorption:    3.851451e+01 molecules
                          3.851451e+01 molecules/uc
                          5.800277e+00 mol/kg-framework
                          2.552052e+02 mg/g-framework

Total potential energy/kʙ       -1.083693e+05 [K]
-------------------------------------------------------------------------------
    external field VDW/kʙ        0.000000e+00 [K]
    external field Real/kʙ       0.000000e+00 [K]
    framework-molecule VDW/kʙ   -8.978912e+04 [K]
    framework-molecule Real/kʙ   0.000000e+00 [K]
    molecule-molecule VDW/kʙ    -1.379334e+04 [K]
    molecule-molecule Real/kʙ   -4.339470e+03 [K]
    Van der Waals (Tail)/kʙ      0.000000e+00 [K]
    Ewald Fourier/kʙ             3.546253e+03 [K]
    Ewald self/kʙ               -7.381971e+05 [K]
    Ewald exclusion/kʙ           7.342034e+05 [K]
    polarization/kʙ              0.000000e+00 [K]
    dU/dlambda VDW/kʙ            0.000000e+00 [K]
    dU/dlambda Real/kʙ           0.000000e+00 [K]
    dU/dlambda Ewald/kʙ          0.000000e+00 [K]


Initialization: Current cycle: 20000 out of 50000
===============================================================================

Box:      20.81000   0.00000   0.00000
           0.00000  20.81000   0.00000
           0.00000   0.00000  20.81000
Lengths:  20.81000  20.81000  20.81000
Angles:   90.00000  90.00000  90.00000
Rectangular boundary conditions
Perpendicular widths:   20.81000  20.81000  20.81000


Net charge:   0.00000000
Cutoff Coulomb:  10.40500 [Å]
Ewald alpha: 0.3077428496806629
Ewald k-vectors: 7 7 7


component   0 (CO2) lambda:  0 occupancy:  1 (1.000000)
    net charge:   0.00000000 [e]

Amount of molecules per component:
-------------------------------------------------------------------------------
Component 0 (CO2)
    absolute adsorption:  3.100000e+01 molecules
                          3.100000e+01 molecules/uc
                          4.668593e+00 mol/kg-framework
                          2.054125e+02 mg/g-framework
    excess adsorption:    2.951451e+01 molecules
                          2.951451e+01 molecules/uc
                          4.444879e+00 mol/kg-framework
                          1.955693e+02 mg/g-framework

Total potential energy/kʙ       -8.072518e+04 [K]
-------------------------------------------------------------------------------
    external field VDW/kʙ        0.000000e+00 [K]
    external field Real/kʙ       0.000000e+00 [K]
    framework-molecule VDW/kʙ   -6.793477e+04 [K]
    framework-molecule Real/kʙ   0.000000e+00 [K]
    molecule-molecule VDW/kʙ    -1.073861e+04 [K]
    molecule-molecule Real/kʙ   -1.947880e+03 [K]
    Van der Waals (Tail)/kʙ      0.000000e+00 [K]
    Ewald Fourier/kʙ             2.991150e+03 [K]
    Ewald self/kʙ               -5.721027e+05 [K]
    Ewald exclusion/kʙ           5.690077e+05 [K]
    polarization/kʙ              0.000000e+00 [K]
    dU/dlambda VDW/kʙ            0.000000e+00 [K]
    dU/dlambda Real/kʙ           0.000000e+00 [K]
    dU/dlambda Ewald/kʙ          0.000000e+00 [K]


Initialization: Current cycle: 25000 out of 50000
===============================================================================

Box:      20.81000   0.00000   0.00000
           0.00000  20.81000   0.00000
           0.00000   0.00000  20.81000
Lengths:  20.81000  20.81000  20.81000
Angles:   90.00000  90.00000  90.00000
Rectangular boundary conditions
Perpendicular widths:   20.81000  20.81000  20.81000


Net charge:   0.00000000
Cutoff Coulomb:  10.40500 [Å]
Ewald alpha: 0.3077428496806629
Ewald k-vectors: 7 7 7


component   0 (CO2) lambda:  0 occupancy:  1 (1.000000)
    net charge:   0.00000000 [e]

Amount of molecules per component:
-------------------------------------------------------------------------------
Component 0 (CO2)
    absolute adsorption:  3.400000e+01 molecules
                          3.400000e+01 molecules/uc
                          5.120393e+00 mol/kg-framework
                          2.252911e+02 mg/g-framework
    excess adsorption:    3.251451e+01 molecules
                          3.251451e+01 molecules/uc
                          4.896678e+00 mol/kg-framework
                          2.154480e+02 mg/g-framework

Total potential energy/kʙ       -9.059584e+04 [K]
-------------------------------------------------------------------------------
    external field VDW/kʙ        0.000000e+00 [K]
    external field Real/kʙ       0.000000e+00 [K]
    framework-molecule VDW/kʙ   -7.689220e+04 [K]
    framework-molecule Real/kʙ   0.000000e+00 [K]
    molecule-molecule VDW/kʙ    -1.206175e+04 [K]
    molecule-molecule Real/kʙ   -1.470077e+03 [K]
    Van der Waals (Tail)/kʙ      0.000000e+00 [K]
    Ewald Fourier/kʙ             3.222798e+03 [K]
    Ewald self/kʙ               -6.274675e+05 [K]
    Ewald exclusion/kʙ           6.240729e+05 [K]
    polarization/kʙ              0.000000e+00 [K]
    dU/dlambda VDW/kʙ            0.000000e+00 [K]
    dU/dlambda Real/kʙ           0.000000e+00 [K]
    dU/dlambda Ewald/kʙ          0.000000e+00 [K]


Initialization: Current cycle: 30000 out of 50000
===============================================================================

Box:      20.81000   0.00000   0.00000
           0.00000  20.81000   0.00000
           0.00000   0.00000  20.81000
Lengths:  20.81000  20.81000  20.81000
Angles:   90.00000  90.00000  90.00000
Rectangular boundary conditions
Perpendicular widths:   20.81000  20.81000  20.81000


Net charge:   0.00000000
Cutoff Coulomb:  10.40500 [Å]
Ewald alpha: 0.3077428496806629
Ewald k-vectors: 7 7 7


component   0 (CO2) lambda:  0 occupancy:  1 (1.000000)
    net charge:   0.00000000 [e]

Amount of molecules per component:
-------------------------------------------------------------------------------
Component 0 (CO2)
    absolute adsorption:  3.800000e+01 molecules
                          3.800000e+01 molecules/uc
                          5.722792e+00 mol/kg-framework
                          2.517960e+02 mg/g-framework
    excess adsorption:    3.651451e+01 molecules
                          3.651451e+01 molecules/uc
                          5.499078e+00 mol/kg-framework
                          2.419528e+02 mg/g-framework

Total potential energy/kʙ       -1.014382e+05 [K]
-------------------------------------------------------------------------------
    external field VDW/kʙ        0.000000e+00 [K]
    external field Real/kʙ       0.000000e+00 [K]
    framework-molecule VDW/kʙ   -8.680883e+04 [K]
    framework-molecule Real/kʙ   0.000000e+00 [K]
    molecule-molecule VDW/kʙ    -1.338480e+04 [K]
    molecule-molecule Real/kʙ   -1.147424e+03 [K]
    Van der Waals (Tail)/kʙ      0.000000e+00 [K]
    Ewald Fourier/kʙ             3.696798e+03 [K]
    Ewald self/kʙ               -7.012872e+05 [K]
    Ewald exclusion/kʙ           6.974933e+05 [K]
    polarization/kʙ              0.000000e+00 [K]
    dU/dlambda VDW/kʙ            0.000000e+00 [K]
    dU/dlambda Real/kʙ           0.000000e+00 [K]
    dU/dlambda Ewald/kʙ          0.000000e+00 [K]


Initialization: Current cycle: 35000 out of 50000
===============================================================================

Box:      20.81000   0.00000   0.00000
           0.00000  20.81000   0.00000
           0.00000   0.00000  20.81000
Lengths:  20.81000  20.81000  20.81000
Angles:   90.00000  90.00000  90.00000
Rectangular boundary conditions
Perpendicular widths:   20.81000  20.81000  20.81000


Net charge:   0.00000000
Cutoff Coulomb:  10.40500 [Å]
Ewald alpha: 0.3077428496806629
Ewald k-vectors: 7 7 7


component   0 (CO2) lambda:  0 occupancy:  1 (1.000000)
    net charge:   0.00000000 [e]

Amount of molecules per component:
-------------------------------------------------------------------------------
Component 0 (CO2)
    absolute adsorption:  4.000000e+01 molecules
                          4.000000e+01 molecules/uc
                          6.023991e+00 mol/kg-framework
                          2.650484e+02 mg/g-framework
    excess adsorption:    3.851451e+01 molecules
                          3.851451e+01 molecules/uc
                          5.800277e+00 mol/kg-framework
                          2.552052e+02 mg/g-framework

Total potential energy/kʙ       -1.058775e+05 [K]
-------------------------------------------------------------------------------
    external field VDW/kʙ        0.000000e+00 [K]
    external field Real/kʙ       0.000000e+00 [K]
    framework-molecule VDW/kʙ   -8.671331e+04 [K]
    framework-molecule Real/kʙ   0.000000e+00 [K]
    molecule-molecule VDW/kʙ    -1.536824e+04 [K]
    molecule-molecule Real/kʙ   -3.773113e+03 [K]
    Van der Waals (Tail)/kʙ      0.000000e+00 [K]
    Ewald Fourier/kʙ             3.970769e+03 [K]
    Ewald self/kʙ               -7.381971e+05 [K]
    Ewald exclusion/kʙ           7.342034e+05 [K]
    polarization/kʙ              0.000000e+00 [K]
    dU/dlambda VDW/kʙ            0.000000e+00 [K]
    dU/dlambda Real/kʙ           0.000000e+00 [K]
    dU/dlambda Ewald/kʙ          0.000000e+00 [K]


Initialization: Current cycle: 40000 out of 50000
===============================================================================

Box:      20.81000   0.00000   0.00000
           0.00000  20.81000   0.00000
           0.00000   0.00000  20.81000
Lengths:  20.81000  20.81000  20.81000
Angles:   90.00000  90.00000  90.00000
Rectangular boundary conditions
Perpendicular widths:   20.81000  20.81000  20.81000


Net charge:   0.00000000
Cutoff Coulomb:  10.40500 [Å]
Ewald alpha: 0.3077428496806629
Ewald k-vectors: 7 7 7


component   0 (CO2) lambda:  0 occupancy:  1 (1.000000)
    net charge:   0.00000000 [e]

Amount of molecules per component:
-------------------------------------------------------------------------------
Component 0 (CO2)
    absolute adsorption:  3.700000e+01 molecules
                          3.700000e+01 molecules/uc
                          5.572192e+00 mol/kg-framework
                          2.451698e+02 mg/g-framework
    excess adsorption:    3.551451e+01 molecules
                          3.551451e+01 molecules/uc
                          5.348478e+00 mol/kg-framework
                          2.353266e+02 mg/g-framework

Total potential energy/kʙ       -9.907210e+04 [K]
-------------------------------------------------------------------------------
    external field VDW/kʙ        0.000000e+00 [K]
    external field Real/kʙ       0.000000e+00 [K]
    framework-molecule VDW/kʙ   -8.394770e+04 [K]
    framework-molecule Real/kʙ   0.000000e+00 [K]
    molecule-molecule VDW/kʙ    -1.207317e+04 [K]
    molecule-molecule Real/kʙ   -3.028010e+03 [K]
    Van der Waals (Tail)/kʙ      0.000000e+00 [K]
    Ewald Fourier/kʙ             3.670902e+03 [K]
    Ewald self/kʙ               -6.828323e+05 [K]
    Ewald exclusion/kʙ           6.791382e+05 [K]
    polarization/kʙ              0.000000e+00 [K]
    dU/dlambda VDW/kʙ            0.000000e+00 [K]
    dU/dlambda Real/kʙ           0.000000e+00 [K]
    dU/dlambda Ewald/kʙ          0.000000e+00 [K]


Initialization: Current cycle: 45000 out of 50000
===============================================================================

Box:      20.81000   0.00000   0.00000
           0.00000  20.81000   0.00000
           0.00000   0.00000  20.81000
Lengths:  20.81000  20.81000  20.81000
Angles:   90.00000  90.00000  90.00000
Rectangular boundary conditions
Perpendicular widths:   20.81000  20.81000  20.81000


Net charge:   0.00000000
Cutoff Coulomb:  10.40500 [Å]
Ewald alpha: 0.3077428496806629
Ewald k-vectors: 7 7 7


component   0 (CO2) lambda:  0 occupancy:  1 (1.000000)
    net charge:   0.00000000 [e]

Amount of molecules per component:
-------------------------------------------------------------------------------
Component 0 (CO2)
    absolute adsorption:  3.200000e+01 molecules
                          3.200000e+01 molecules/uc
                          4.819193e+00 mol/kg-framework
                          2.120387e+02 mg/g-framework
    excess adsorption:    3.051451e+01 molecules
                          3.051451e+01 molecules/uc
                          4.595479e+00 mol/kg-framework
                          2.021956e+02 mg/g-framework

Total potential energy/kʙ       -8.201747e+04 [K]
-------------------------------------------------------------------------------
    external field VDW/kʙ        0.000000e+00 [K]
    external field Real/kʙ       0.000000e+00 [K]
    framework-molecule VDW/kʙ   -7.198665e+04 [K]
    framework-molecule Real/kʙ   0.000000e+00 [K]
    molecule-molecule VDW/kʙ    -1.041472e+04 [K]
    molecule-molecule Real/kʙ   -4.851578e+01 [K]
    Van der Waals (Tail)/kʙ      0.000000e+00 [K]
    Ewald Fourier/kʙ             3.627337e+03 [K]
    Ewald self/kʙ               -5.905577e+05 [K]
    Ewald exclusion/kʙ           5.873628e+05 [K]
    polarization/kʙ              0.000000e+00 [K]
    dU/dlambda VDW/kʙ            0.000000e+00 [K]
    dU/dlambda Real/kʙ           0.000000e+00 [K]
    dU/dlambda Ewald/kʙ          0.000000e+00 [K]


Current cycle: 0 out of 100000
===============================================================================

Box:      20.81000   0.00000   0.00000  Average:  20.81000   0.00000   0.00000
           0.00000  20.81000   0.00000             0.00000  20.81000   0.00000
           0.00000   0.00000  20.81000             0.00000   0.00000  20.81000
Lengths:  20.81000  20.81000  20.81000  Average:  20.81000  20.81000  20.81000
Angles:   90.00000  90.00000  90.00000  Average:  90.00000  90.00000  90.00000
Rectangular boundary conditions

Net charge:   0.00000000
Cutoff Coulomb:  10.40500 [Å]
Ewald alpha: 0.3077428496806629
Ewald k-vectors: 7 7 7


component 0 (CO2) lambda:  0 occupancy:  1 (1.000000)
    net charge:   0.00000000 [e]

Amount of molecules per component:
-------------------------------------------------------------------------------
Component 0 (CO2)
    absolute adsorption: 3.800000e+01 molecules (3.800000e+01 +/- 0.000000e+00)
                         3.800000e+01 molec./uc (3.800000e+01 +/- 0.000000e+00)
                         5.722792e+00 mol/kg    (5.722792e+00 +/- 0.000000e+00)
                         2.517960e+02 mg/g      (2.517960e+02 +/- 0.000000e+00)
    excess adsorption:   3.651451e+01 molecules (3.651451e+01 +/- 0.000000e+00)
                         3.651451e+01 molec./uc (3.651451e+01 +/- 0.000000e+00)
                         5.499078e+00 mol/kg    (5.499078e+00 +/- 0.000000e+00)
                         2.419528e+02 mg/g      (2.419528e+02 +/- 0.000000e+00)

Total potential energy/kʙ  -9.412356e+04 (-9.412356e+04 +/- 0.000000e+00) [K]
-------------------------------------------------------------------------------
ExternalField-molecule
    Van der Waals/kʙ        0.000000e+00 ( 0.000000e+00 +/- 0.000000e+00) [K]
Framework-molecule
    Van der Waals/kʙ       -8.036906e+04 (-8.036906e+04 +/- 0.000000e+00) [K]
    Van der Waals (Tail)/kʙ 0.000000e+00 ( 0.000000e+00 +/- 0.000000e+00) [K]
    Coulombic Real/kʙ       0.000000e+00 ( 0.000000e+00 +/- 0.000000e+00) [K]
    Coulombic Fourier/kʙ    0.000000e+00 ( 0.000000e+00 +/- 0.000000e+00) [K]
Molecule-molecule
    Van der Waals/kʙ       -1.258371e+04 (-1.258371e+04 +/- 0.000000e+00) [K]
    Van der Waals (Tail)/kʙ 0.000000e+00 ( 0.000000e+00 +/- 0.000000e+00) [K]
    Coulombic Real/kʙ      -1.410938e+03 (-1.410938e+03 +/- 0.000000e+00) [K]
    Coulombic Fourier/kʙ    2.401495e+02 ( 2.401495e+02 +/- 0.000000e+00) [K]
    Molecule Intra/kʙ       0.000000e+00 ( 0.000000e+00 +/- 0.000000e+00) [K]
Polarization energy/kʙ      0.000000e+00 ( 0.000000e+00 +/- 0.000000e+00) [K]

Current cycle: 5000 out of 100000
===============================================================================

Box:      20.81000   0.00000   0.00000  Average:  20.81000   0.00000   0.00000
           0.00000  20.81000   0.00000             0.00000  20.81000   0.00000
           0.00000   0.00000  20.81000             0.00000   0.00000  20.81000
Lengths:  20.81000  20.81000  20.81000  Average:  20.81000  20.81000  20.81000
Angles:   90.00000  90.00000  90.00000  Average:  90.00000  90.00000  90.00000
Rectangular boundary conditions

Net charge:   0.00000000
Cutoff Coulomb:  10.40500 [Å]
Ewald alpha: 0.3077428496806629
Ewald k-vectors: 7 7 7


component 0 (CO2) lambda:  0 occupancy:  1 (1.000000)
    net charge:   0.00000000 [e]

Amount of molecules per component:
-------------------------------------------------------------------------------
Component 0 (CO2)
    absolute adsorption: 3.700000e+01 molecules (3.618036e+01 +/- 0.000000e+00)
                         3.700000e+01 molec./uc (3.618036e+01 +/- 0.000000e+00)
                         5.572192e+00 mol/kg    (5.448755e+00 +/- 0.000000e+00)
                         2.451698e+02 mg/g      (2.397387e+02 +/- 0.000000e+00)
    excess adsorption:   3.551451e+01 molecules (3.469488e+01 +/- 0.000000e+00)
                         3.551451e+01 molec./uc (3.469488e+01 +/- 0.000000e+00)
                         5.348478e+00 mol/kg    (5.225041e+00 +/- 0.000000e+00)
                         2.353266e+02 mg/g      (2.298955e+02 +/- 0.000000e+00)

Total potential energy/kʙ  -9.717938e+04 (-9.352633e+04 +/- 0.000000e+00) [K]
-------------------------------------------------------------------------------
ExternalField-molecule
    Van der Waals/kʙ        0.000000e+00 ( 0.000000e+00 +/- 0.000000e+00) [K]
Framework-molecule
    Van der Waals/kʙ       -8.254266e+04 (-7.930736e+04 +/- 0.000000e+00) [K]
    Van der Waals (Tail)/kʙ 0.000000e+00 ( 0.000000e+00 +/- 0.000000e+00) [K]
    Coulombic Real/kʙ       0.000000e+00 ( 0.000000e+00 +/- 0.000000e+00) [K]
    Coulombic Fourier/kʙ    0.000000e+00 ( 0.000000e+00 +/- 0.000000e+00) [K]
Molecule-molecule
    Van der Waals/kʙ       -1.199460e+04 (-1.203036e+04 +/- 0.000000e+00) [K]
    Van der Waals (Tail)/kʙ 0.000000e+00 ( 0.000000e+00 +/- 0.000000e+00) [K]
    Coulombic Real/kʙ      -2.575854e+03 (-2.118413e+03 +/- 0.000000e+00) [K]
    Coulombic Fourier/kʙ   -6.626471e+01 (-7.019173e+01 +/- 0.000000e+00) [K]
    Molecule Intra/kʙ       0.000000e+00 ( 0.000000e+00 +/- 0.000000e+00) [K]
Polarization energy/kʙ      0.000000e+00 ( 0.000000e+00 +/- 0.000000e+00) [K]

Current cycle: 10000 out of 100000
===============================================================================

Box:      20.81000   0.00000   0.00000  Average:  20.81000   0.00000   0.00000
           0.00000  20.81000   0.00000             0.00000  20.81000   0.00000
           0.00000   0.00000  20.81000             0.00000   0.00000  20.81000
Lengths:  20.81000  20.81000  20.81000  Average:  20.81000  20.81000  20.81000
Angles:   90.00000  90.00000  90.00000  Average:  90.00000  90.00000  90.00000
Rectangular boundary conditions

Net charge:   0.00000000
Cutoff Coulomb:  10.40500 [Å]
Ewald alpha: 0.3077428496806629
Ewald k-vectors: 7 7 7


component 0 (CO2) lambda:  0 occupancy:  1 (1.000000)
    net charge:   0.00000000 [e]

Amount of molecules per component:
-------------------------------------------------------------------------------
Component 0 (CO2)
    absolute adsorption: 3.700000e+01 molecules (3.635066e+01 +/- 0.000000e+00)
                         3.700000e+01 molec./uc (3.635066e+01 +/- 0.000000e+00)
                         5.572192e+00 mol/kg    (5.474402e+00 +/- 0.000000e+00)
                         2.451698e+02 mg/g      (2.408671e+02 +/- 0.000000e+00)
    excess adsorption:   3.551451e+01 molecules (3.486518e+01 +/- 0.000000e+00)
                         3.551451e+01 molec./uc (3.486518e+01 +/- 0.000000e+00)
                         5.348478e+00 mol/kg    (5.250688e+00 +/- 0.000000e+00)
                         2.353266e+02 mg/g      (2.310240e+02 +/- 0.000000e+00)

Total potential energy/kʙ  -9.524911e+04 (-9.429499e+04 +/- 0.000000e+00) [K]
-------------------------------------------------------------------------------
ExternalField-molecule
    Van der Waals/kʙ        0.000000e+00 ( 0.000000e+00 +/- 0.000000e+00) [K]
Framework-molecule
    Van der Waals/kʙ       -8.098113e+04 (-7.986955e+04 +/- 0.000000e+00) [K]
    Van der Waals (Tail)/kʙ 0.000000e+00 ( 0.000000e+00 +/- 0.000000e+00) [K]
    Coulombic Real/kʙ       0.000000e+00 ( 0.000000e+00 +/- 0.000000e+00) [K]
    Coulombic Fourier/kʙ    0.000000e+00 ( 0.000000e+00 +/- 0.000000e+00) [K]
Molecule-molecule
    Van der Waals/kʙ       -1.262078e+04 (-1.214362e+04 +/- 0.000000e+00) [K]
    Van der Waals (Tail)/kʙ 0.000000e+00 ( 0.000000e+00 +/- 0.000000e+00) [K]
    Coulombic Real/kʙ      -1.614570e+03 (-2.203408e+03 +/- 0.000000e+00) [K]
    Coulombic Fourier/kʙ   -3.262358e+01 (-7.842160e+01 +/- 0.000000e+00) [K]
    Molecule Intra/kʙ       0.000000e+00 ( 0.000000e+00 +/- 0.000000e+00) [K]
Polarization energy/kʙ      0.000000e+00 ( 0.000000e+00 +/- 0.000000e+00) [K]

Current cycle: 15000 out of 100000
===============================================================================

Box:      20.81000   0.00000   0.00000  Average:  20.81000   0.00000   0.00000
           0.00000  20.81000   0.00000             0.00000  20.81000   0.00000
           0.00000   0.00000  20.81000             0.00000   0.00000  20.81000
Lengths:  20.81000  20.81000  20.81000  Average:  20.81000  20.81000  20.81000
Angles:   90.00000  90.00000  90.00000  Average:  90.00000  90.00000  90.00000
Rectangular boundary conditions

Net charge:   0.00000000
Cutoff Coulomb:  10.40500 [Å]
Ewald alpha: 0.3077428496806629
Ewald k-vectors: 7 7 7


component 0 (CO2) lambda:  0 occupancy:  1 (1.000000)
    net charge:   0.00000000 [e]

Amount of molecules per component:
-------------------------------------------------------------------------------
Component 0 (CO2)
    absolute adsorption: 3.700000e+01 molecules (3.616172e+01 +/- 0.000000e+00)
                         3.700000e+01 molec./uc (3.616172e+01 +/- 0.000000e+00)
                         5.572192e+00 mol/kg    (5.445948e+00 +/- 0.000000e+00)
                         2.451698e+02 mg/g      (2.396152e+02 +/- 0.000000e+00)
    excess adsorption:   3.551451e+01 molecules (3.467623e+01 +/- 0.000000e+00)
                         3.551451e+01 molec./uc (3.467623e+01 +/- 0.000000e+00)
                         5.348478e+00 mol/kg    (5.222233e+00 +/- 0.000000e+00)
                         2.353266e+02 mg/g      (2.297720e+02 +/- 0.000000e+00)

Total potential energy/kʙ  -9.941989e+04 (-9.376316e+04 +/- 0.000000e+00) [K]
-------------------------------------------------------------------------------
ExternalField-molecule
    Van der Waals/kʙ        0.000000e+00 ( 0.000000e+00 +/- 0.000000e+00) [K]
Framework-molecule
    Van der Waals/kʙ       -8.532821e+04 (-7.955823e+04 +/- 0.000000e+00) [K]
    Van der Waals (Tail)/kʙ 0.000000e+00 ( 0.000000e+00 +/- 0.000000e+00) [K]
    Coulombic Real/kʙ       0.000000e+00 ( 0.000000e+00 +/- 0.000000e+00) [K]
    Coulombic Fourier/kʙ    0.000000e+00 ( 0.000000e+00 +/- 0.000000e+00) [K]
Molecule-molecule
    Van der Waals/kʙ       -1.287084e+04 (-1.202649e+04 +/- 0.000000e+00) [K]
    Van der Waals (Tail)/kʙ 0.000000e+00 ( 0.000000e+00 +/- 0.000000e+00) [K]
    Coulombic Real/kʙ      -1.134643e+03 (-2.110878e+03 +/- 0.000000e+00) [K]
    Coulombic Fourier/kʙ   -8.618731e+01 (-6.755647e+01 +/- 0.000000e+00) [K]
    Molecule Intra/kʙ       0.000000e+00 ( 0.000000e+00 +/- 0.000000e+00) [K]
Polarization energy/kʙ      0.000000e+00 ( 0.000000e+00 +/- 0.000000e+00) [K]

Current cycle: 20000 out of 100000
===============================================================================

Box:      20.81000   0.00000   0.00000  Average:  20.81000   0.00000   0.00000
           0.00000  20.81000   0.00000             0.00000  20.81000   0.00000
           0.00000   0.00000  20.81000             0.00000   0.00000  20.81000
Lengths:  20.81000  20.81000  20.81000  Average:  20.81000  20.81000  20.81000
Angles:   90.00000  90.00000  90.00000  Average:  90.00000  90.00000  90.00000
Rectangular boundary conditions

Net charge:   0.00000000
Cutoff Coulomb:  10.40500 [Å]
Ewald alpha: 0.3077428496806629
Ewald k-vectors: 7 7 7


component 0 (CO2) lambda:  0 occupancy:  1 (1.000000)
    net charge:   0.00000000 [e]

Amount of molecules per component:
-------------------------------------------------------------------------------
Component 0 (CO2)
    absolute adsorption: 3.500000e+01 molecules (3.628199e+01 +/- 0.000000e+00)
                         3.500000e+01 molec./uc (3.628199e+01 +/- 0.000000e+00)
                         5.270992e+00 mol/kg    (5.464059e+00 +/- 0.000000e+00)
                         2.319173e+02 mg/g      (2.404120e+02 +/- 0.000000e+00)
    excess adsorption:   3.351451e+01 molecules (3.479650e+01 +/- 0.000000e+00)
                         3.351451e+01 molec./uc (3.479650e+01 +/- 0.000000e+00)
                         5.047278e+00 mol/kg    (5.240345e+00 +/- 0.000000e+00)
                         2.220742e+02 mg/g      (2.305689e+02 +/- 0.000000e+00)

Total potential energy/kʙ  -8.904973e+04 (-9.414391e+04 +/- 0.000000e+00) [K]
-------------------------------------------------------------------------------
ExternalField-molecule
    Van der Waals/kʙ        0.000000e+00 ( 0.000000e+00 +/- 0.000000e+00) [K]
Framework-molecule
    Van der Waals/kʙ       -7.791241e+04 (-7.987137e+04 +/- 0.000000e+00) [K]
    Van der Waals (Tail)/kʙ 0.000000e+00 ( 0.000000e+00 +/- 0.000000e+00) [K]
    Coulombic Real/kʙ       0.000000e+00 ( 0.000000e+00 +/- 0.000000e+00) [K]
    Coulombic Fourier/kʙ    0.000000e+00 ( 0.000000e+00 +/- 0.000000e+00) [K]
Molecule-molecule
    Van der Waals/kʙ       -1.128551e+04 (-1.206627e+04 +/- 0.000000e+00) [K]
    Van der Waals (Tail)/kʙ 0.000000e+00 ( 0.000000e+00 +/- 0.000000e+00) [K]
    Coulombic Real/kʙ      -2.046748e+02 (-2.134217e+03 +/- 0.000000e+00) [K]
    Coulombic Fourier/kʙ    3.528614e+02 (-7.205103e+01 +/- 0.000000e+00) [K]
    Molecule Intra/kʙ       0.000000e+00 ( 0.000000e+00 +/- 0.000000e+00) [K]
Polarization energy/kʙ      0.000000e+00 ( 0.000000e+00 +/- 0.000000e+00) [K]

Current cycle: 25000 out of 100000
===============================================================================

Box:      20.81000   0.00000   0.00000  Average:  20.81000   0.00000   0.00000
           0.00000  20.81000   0.00000             0.00000  20.81000   0.00000
           0.00000   0.00000  20.81000             0.00000   0.00000  20.81000
Lengths:  20.81000  20.81000  20.81000  Average:  20.81000  20.81000  20.81000
Angles:   90.00000  90.00000  90.00000  Average:  90.00000  90.00000  90.00000
Rectangular boundary conditions

Net charge:   0.00000000
Cutoff Coulomb:  10.40500 [Å]
Ewald alpha: 0.3077428496806629
Ewald k-vectors: 7 7 7


component 0 (CO2) lambda:  0 occupancy:  1 (1.000000)
    net charge:   0.00000000 [e]

Amount of molecules per component:
-------------------------------------------------------------------------------
Component 0 (CO2)
    absolute adsorption: 3.600000e+01 molecules (3.628495e+01 +/- 0.000000e+00)
                         3.600000e+01 molec./uc (3.628495e+01 +/- 0.000000e+00)
                         5.421592e+00 mol/kg    (5.464505e+00 +/- 0.000000e+00)
                         2.385435e+02 mg/g      (2.404317e+02 +/- 0.000000e+00)
    excess adsorption:   3.451451e+01 molecules (3.479946e+01 +/- 0.000000e+00)
                         3.451451e+01 molec./uc (3.479946e+01 +/- 0.000000e+00)
                         5.197878e+00 mol/kg    (5.240791e+00 +/- 0.000000e+00)
                         2.287004e+02 mg/g      (2.305885e+02 +/- 0.000000e+00)

Total potential energy/kʙ  -9.567158e+04 (-9.411562e+04 +/- 0.000000e+00) [K]
-------------------------------------------------------------------------------
ExternalField-molecule
    Van der Waals/kʙ        0.000000e+00 ( 0.000000e+00 +/- 0.000000e+00) [K]
Framework-molecule
    Van der Waals/kʙ       -8.330584e+04 (-7.989939e+04 +/- 0.000000e+00) [K]
    Van der Waals (Tail)/kʙ 0.000000e+00 ( 0.000000e+00 +/- 0.000000e+00) [K]
    Coulombic Real/kʙ       0.000000e+00 ( 0.000000e+00 +/- 0.000000e+00) [K]
    Coulombic Fourier/kʙ    0.000000e+00 ( 0.000000e+00 +/- 0.000000e+00) [K]
Molecule-molecule
    Van der Waals/kʙ       -1.179555e+04 (-1.205683e+04 +/- 0.000000e+00) [K]
    Van der Waals (Tail)/kʙ 0.000000e+00 ( 0.000000e+00 +/- 0.000000e+00) [K]
    Coulombic Real/kʙ      -7.035982e+02 (-2.094679e+03 +/- 0.000000e+00) [K]
    Coulombic Fourier/kʙ    1.334116e+02 (-6.472169e+01 +/- 0.000000e+00) [K]
    Molecule Intra/kʙ       0.000000e+00 ( 0.000000e+00 +/- 0.000000e+00) [K]
Polarization energy/kʙ      0.000000e+00 ( 0.000000e+00 +/- 0.000000e+00) [K]

Current cycle: 30000 out of 100000
===============================================================================

Box:      20.81000   0.00000   0.00000  Average:  20.81000   0.00000   0.00000
           0.00000  20.81000   0.00000             0.00000  20.81000   0.00000
           0.00000   0.00000  20.81000             0.00000   0.00000  20.81000
Lengths:  20.81000  20.81000  20.81000  Average:  20.81000  20.81000  20.81000
Angles:   90.00000  90.00000  90.00000  Average:  90.00000  90.00000  90.00000
Rectangular boundary conditions

Net charge:   0.00000000
Cutoff Coulomb:  10.40500 [Å]
Ewald alpha: 0.3077428496806629
Ewald k-vectors: 7 7 7


component 0 (CO2) lambda:  0 occupancy:  1 (1.000000)
    net charge:   0.00000000 [e]

Amount of molecules per component:
-------------------------------------------------------------------------------
Component 0 (CO2)
    absolute adsorption: 3.900000e+01 molecules (3.637429e+01 +/- 0.000000e+00)
                         3.900000e+01 molec./uc (3.637429e+01 +/- 0.000000e+00)
                         5.873392e+00 mol/kg    (5.477960e+00 +/- 0.000000e+00)
                         2.584222e+02 mg/g      (2.410237e+02 +/- 0.000000e+00)
    excess adsorption:   3.751451e+01 molecules (3.488880e+01 +/- 0.000000e+00)
                         3.751451e+01 molec./uc (3.488880e+01 +/- 0.000000e+00)
                         5.649677e+00 mol/kg    (5.254246e+00 +/- 0.000000e+00)
                         2.485790e+02 mg/g      (2.311805e+02 +/- 0.000000e+00)

Total potential energy/kʙ  -1.039014e+05 (-9.440319e+04 +/- 0.000000e+00) [K]
-------------------------------------------------------------------------------
ExternalField-molecule
    Van der Waals/kʙ        0.000000e+00 ( 0.000000e+00 +/- 0.000000e+00) [K]
Framework-molecule
    Van der Waals/kʙ       -8.617796e+04 (-8.011121e+04 +/- 0.000000e+00) [K]
    Van der Waals (Tail)/kʙ 0.000000e+00 ( 0.000000e+00 +/- 0.000000e+00) [K]
    Coulombic Real/kʙ       0.000000e+00 ( 0.000000e+00 +/- 0.000000e+00) [K]
    Coulombic Fourier/kʙ    0.000000e+00 ( 0.000000e+00 +/- 0.000000e+00) [K]
Molecule-molecule
    Van der Waals/kʙ       -1.381729e+04 (-1.209971e+04 +/- 0.000000e+00) [K]
    Van der Waals (Tail)/kʙ 0.000000e+00 ( 0.000000e+00 +/- 0.000000e+00) [K]
    Coulombic Real/kʙ      -3.061545e+03 (-2.123347e+03 +/- 0.000000e+00) [K]
    Coulombic Fourier/kʙ   -8.445884e+02 (-6.892125e+01 +/- 0.000000e+00) [K]
    Molecule Intra/kʙ       0.000000e+00 ( 0.000000e+00 +/- 0.000000e+00) [K]
Polarization energy/kʙ      0.000000e+00 ( 0.000000e+00 +/- 0.000000e+00) [K]

Current cycle: 35000 out of 100000
===============================================================================

Box:      20.81000   0.00000   0.00000  Average:  20.81000   0.00000   0.00000
           0.00000  20.81000   0.00000             0.00000  20.81000   0.00000
           0.00000   0.00000  20.81000             0.00000   0.00000  20.81000
Lengths:  20.81000  20.81000  20.81000  Average:  20.81000  20.81000  20.81000
Angles:   90.00000  90.00000  90.00000  Average:  90.00000  90.00000  90.00000
Rectangular boundary conditions

Net charge:   0.00000000
Cutoff Coulomb:  10.40500 [Å]
Ewald alpha: 0.3077428496806629
Ewald k-vectors: 7 7 7


component 0 (CO2) lambda:  0 occupancy:  1 (1.000000)
    net charge:   0.00000000 [e]

Amount of molecules per component:
-------------------------------------------------------------------------------
Component 0 (CO2)
    absolute adsorption: 3.800000e+01 molecules (3.630076e+01 +/- 0.000000e+00)
                         3.800000e+01 molec./uc (3.630076e+01 +/- 0.000000e+00)
                         5.722792e+00 mol/kg    (5.466887e+00 +/- 0.000000e+00)
                         2.517960e+02 mg/g      (2.405365e+02 +/- 0.000000e+00)
    excess adsorption:   3.651451e+01 molecules (3.481528e+01 +/- 0.000000e+00)
                         3.651451e+01 molec./uc (3.481528e+01 +/- 0.000000e+00)
                         5.499078e+00 mol/kg    (5.243173e+00 +/- 0.000000e+00)
                         2.419528e+02 mg/g      (2.306933e+02 +/- 0.000000e+00)

Total potential energy/kʙ  -1.020602e+05 (-9.422155e+04 +/- 0.000000e+00) [K]
-------------------------------------------------------------------------------
ExternalField-molecule
    Van der Waals/kʙ        0.000000e+00 ( 0.000000e+00 +/- 0.000000e+00) [K]
Framework-molecule
    Van der Waals/kʙ       -8.754195e+04 (-7.997080e+04 +/- 0.000000e+00) [K]
    Van der Waals (Tail)/kʙ 0.000000e+00 ( 0.000000e+00 +/- 0.000000e+00) [K]
    Coulombic Real/kʙ       0.000000e+00 ( 0.000000e+00 +/- 0.000000e+00) [K]
    Coulombic Fourier/kʙ    0.000000e+00 ( 0.000000e+00 +/- 0.000000e+00) [K]
Molecule-molecule
    Van der Waals/kʙ       -1.215178e+04 (-1.205279e+04 +/- 0.000000e+00) [K]
    Van der Waals (Tail)/kʙ 0.000000e+00 ( 0.000000e+00 +/- 0.000000e+00) [K]
    Coulombic Real/kʙ      -2.552240e+03 (-2.126205e+03 +/- 0.000000e+00) [K]
    Coulombic Fourier/kʙ    1.857576e+02 (-7.175222e+01 +/- 0.000000e+00) [K]
    Molecule Intra/kʙ       0.000000e+00 ( 0.000000e+00 +/- 0.000000e+00) [K]
Polarization energy/kʙ      0.000000e+00 ( 0.000000e+00 +/- 0.000000e+00) [K]

Current cycle: 40000 out of 100000
===============================================================================

Box:      20.81000   0.00000   0.00000  Average:  20.81000   0.00000   0.00000
           0.00000  20.81000   0.00000             0.00000  20.81000   0.00000
           0.00000   0.00000  20.81000             0.00000   0.00000  20.81000
Lengths:  20.81000  20.81000  20.81000  Average:  20.81000  20.81000  20.81000
Angles:   90.00000  90.00000  90.00000  Average:  90.00000  90.00000  90.00000
Rectangular boundary conditions

Net charge:   0.00000000
Cutoff Coulomb:  10.40500 [Å]
Ewald alpha: 0.3077428496806629
Ewald k-vectors: 7 7 7


component 0 (CO2) lambda:  0 occupancy:  1 (1.000000)
    net charge:   0.00000000 [e]

Amount of molecules per component:
-------------------------------------------------------------------------------
Component 0 (CO2)
    absolute adsorption: 3.600000e+01 molecules (3.635047e+01 +/- 0.000000e+00)
                         3.600000e+01 molec./uc (3.635047e+01 +/- 0.000000e+00)
                         5.421592e+00 mol/kg    (5.474372e+00 +/- 0.000000e+00)
                         2.385435e+02 mg/g      (2.408658e+02 +/- 0.000000e+00)
    excess adsorption:   3.451451e+01 molecules (3.486498e+01 +/- 0.000000e+00)
                         3.451451e+01 molec./uc (3.486498e+01 +/- 0.000000e+00)
                         5.197878e+00 mol/kg    (5.250658e+00 +/- 0.000000e+00)
                         2.287004e+02 mg/g      (2.310227e+02 +/- 0.000000e+00)

Total potential energy/kʙ  -9.295773e+04 (-9.444337e+04 +/- 0.000000e+00) [K]
-------------------------------------------------------------------------------
ExternalField-molecule
    Van der Waals/kʙ        0.000000e+00 ( 0.000000e+00 +/- 0.000000e+00) [K]
Framework-molecule
    Van der Waals/kʙ       -7.902722e+04 (-8.011975e+04 +/- 0.000000e+00) [K]
    Van der Waals (Tail)/kʙ 0.000000e+00 ( 0.000000e+00 +/- 0.000000e+00) [K]
    Coulombic Real/kʙ       0.000000e+00 ( 0.000000e+00 +/- 0.000000e+00) [K]
    Coulombic Fourier/kʙ    0.000000e+00 ( 0.000000e+00 +/- 0.000000e+00) [K]
Molecule-molecule
    Van der Waals/kʙ       -1.027422e+04 (-1.210062e+04 +/- 0.000000e+00) [K]
    Van der Waals (Tail)/kʙ 0.000000e+00 ( 0.000000e+00 +/- 0.000000e+00) [K]
    Coulombic Real/kʙ      -3.518747e+03 (-2.147179e+03 +/- 0.000000e+00) [K]
    Coulombic Fourier/kʙ   -1.375434e+02 (-7.582000e+01 +/- 0.000000e+00) [K]
    Molecule Intra/kʙ       0.000000e+00 ( 0.000000e+00 +/- 0.000000e+00) [K]
Polarization energy/kʙ      0.000000e+00 ( 0.000000e+00 +/- 0.000000e+00) [K]

Current cycle: 45000 out of 100000
===============================================================================

Box:      20.81000   0.00000   0.00000  Average:  20.81000   0.00000   0.00000
           0.00000  20.81000   0.00000             0.00000  20.81000   0.00000
           0.00000   0.00000  20.81000             0.00000   0.00000  20.81000
Lengths:  20.81000  20.81000  20.81000  Average:  20.81000  20.81000  20.81000
Angles:   90.00000  90.00000  90.00000  Average:  90.00000  90.00000  90.00000
Rectangular boundary conditions

Net charge:   0.00000000
Cutoff Coulomb:  10.40500 [Å]
Ewald alpha: 0.3077428496806629
Ewald k-vectors: 7 7 7


component 0 (CO2) lambda:  0 occupancy:  1 (1.000000)
    net charge:   0.00000000 [e]

Amount of molecules per component:
-------------------------------------------------------------------------------
Component 0 (CO2)
    absolute adsorption: 4.400000e+01 molecules (3.635604e+01 +/- 0.000000e+00)
                         4.400000e+01 molec./uc (3.635604e+01 +/- 0.000000e+00)
                         6.626390e+00 mol/kg    (5.475211e+00 +/- 0.000000e+00)
                         2.915532e+02 mg/g      (2.409027e+02 +/- 0.000000e+00)
    excess adsorption:   4.251451e+01 molecules (3.487055e+01 +/- 0.000000e+00)
                         4.251451e+01 molec./uc (3.487055e+01 +/- 0.000000e+00)
                         6.402676e+00 mol/kg    (5.251497e+00 +/- 0.000000e+00)
                         2.817101e+02 mg/g      (2.310596e+02 +/- 0.000000e+00)

Total potential energy/kʙ  -1.161012e+05 (-9.440766e+04 +/- 0.000000e+00) [K]
-------------------------------------------------------------------------------
ExternalField-molecule
    Van der Waals/kʙ        0.000000e+00 ( 0.000000e+00 +/- 0.000000e+00) [K]
Framework-molecule
    Van der Waals/kʙ       -9.398120e+04 (-8.006899e+04 +/- 0.000000e+00) [K]
    Van der Waals (Tail)/kʙ 0.000000e+00 ( 0.000000e+00 +/- 0.000000e+00) [K]
    Coulombic Real/kʙ       0.000000e+00 ( 0.000000e+00 +/- 0.000000e+00) [K]
    Coulombic Fourier/kʙ    0.000000e+00 ( 0.000000e+00 +/- 0.000000e+00) [K]
Molecule-molecule
    Van der Waals/kʙ       -1.936482e+04 (-1.212095e+04 +/- 0.000000e+00) [K]
    Van der Waals (Tail)/kʙ 0.000000e+00 ( 0.000000e+00 +/- 0.000000e+00) [K]
    Coulombic Real/kʙ      -2.565879e+03 (-2.140579e+03 +/- 0.000000e+00) [K]
    Coulombic Fourier/kʙ   -1.892737e+02 (-7.714617e+01 +/- 0.000000e+00) [K]
    Molecule Intra/kʙ       0.000000e+00 ( 0.000000e+00 +/- 0.000000e+00) [K]
Polarization energy/kʙ      0.000000e+00 ( 0.000000e+00 +/- 0.000000e+00) [K]

Current cycle: 50000 out of 100000
===============================================================================

Box:      20.81000   0.00000   0.00000  Average:  20.81000   0.00000   0.00000
           0.00000  20.81000   0.00000             0.00000  20.81000   0.00000
           0.00000   0.00000  20.81000             0.00000   0.00000  20.81000
Lengths:  20.81000  20.81000  20.81000  Average:  20.81000  20.81000  20.81000
Angles:   90.00000  90.00000  90.00000  Average:  90.00000  90.00000  90.00000
Rectangular boundary conditions

Net charge:   0.00000000
Cutoff Coulomb:  10.40500 [Å]
Ewald alpha: 0.3077428496806629
Ewald k-vectors: 7 7 7


component 0 (CO2) lambda:  0 occupancy:  1 (1.000000)
    net charge:   0.00000000 [e]

Amount of molecules per component:
-------------------------------------------------------------------------------
Component 0 (CO2)
    absolute adsorption: 3.300000e+01 molecules (3.634723e+01 +/- 1.716991e-01)
                         3.300000e+01 molec./uc (3.634723e+01 +/- 1.716991e-01)
                         4.969793e+00 mol/kg    (5.473885e+00 +/- 2.585785e-02)
                         2.186649e+02 mg/g      (2.408444e+02 +/- 1.137715e+00)
    excess adsorption:   3.151451e+01 molecules (3.486175e+01 +/- 1.716991e-01)
                         3.151451e+01 molec./uc (3.486175e+01 +/- 1.716991e-01)
                         4.746079e+00 mol/kg    (5.250171e+00 +/- 2.585785e-02)
                         2.088218e+02 mg/g      (2.310012e+02 +/- 1.137715e+00)

Total potential energy/kʙ  -8.219009e+04 (-9.436034e+04 +/- 9.649705e+02) [K]
-------------------------------------------------------------------------------
ExternalField-molecule
    Van der Waals/kʙ        0.000000e+00 ( 0.000000e+00 +/- 0.000000e+00) [K]
Framework-molecule
    Van der Waals/kʙ       -7.081778e+04 (-8.003761e+04 +/- 8.690576e+02) [K]
    Van der Waals (Tail)/kʙ 0.000000e+00 ( 0.000000e+00 +/- 0.000000e+00) [K]
    Coulombic Real/kʙ       0.000000e+00 ( 0.000000e+00 +/- 0.000000e+00) [K]
    Coulombic Fourier/kʙ    0.000000e+00 ( 0.000000e+00 +/- 0.000000e+00) [K]
Molecule-molecule
    Van der Waals/kʙ       -9.506833e+03 (-1.211334e+04 +/- 1.250965e+02) [K]
    Van der Waals (Tail)/kʙ 0.000000e+00 ( 0.000000e+00 +/- 0.000000e+00) [K]
    Coulombic Real/kʙ      -1.704310e+03 (-2.131574e+03 +/- 1.172823e+02) [K]
    Coulombic Fourier/kʙ   -1.611756e+02 (-7.781741e+01 +/- 1.737945e+01) [K]
    Molecule Intra/kʙ       0.000000e+00 ( 0.000000e+00 +/- 0.000000e+00) [K]
Polarization energy/kʙ      0.000000e+00 ( 0.000000e+00 +/- 0.000000e+00) [K]

Current cycle: 55000 out of 100000
===============================================================================

Box:      20.81000   0.00000   0.00000  Average:  20.81000   0.00000   0.00000
           0.00000  20.81000   0.00000             0.00000  20.81000   0.00000
           0.00000   0.00000  20.81000             0.00000   0.00000  20.81000
Lengths:  20.81000  20.81000  20.81000  Average:  20.81000  20.81000  20.81000
Angles:   90.00000  90.00000  90.00000  Average:  90.00000  90.00000  90.00000
Rectangular boundary conditions

Net charge:   0.00000000
Cutoff Coulomb:  10.40500 [Å]
Ewald alpha: 0.3077428496806629
Ewald k-vectors: 7 7 7


component 0 (CO2) lambda:  0 occupancy:  1 (1.000000)
    net charge:   0.00000000 [e]

Amount of molecules per component:
-------------------------------------------------------------------------------
Component 0 (CO2)
    absolute adsorption: 4.200000e+01 molecules (3.634472e+01 +/- 1.727069e-01)
                         4.200000e+01 molec./uc (3.634472e+01 +/- 1.727069e-01)
                         6.325191e+00 mol/kg    (5.473507e+00 +/- 2.600963e-02)
                         2.783008e+02 mg/g      (2.408277e+02 +/- 1.144392e+00)
    excess adsorption:   4.051451e+01 molecules (3.485923e+01 +/- 1.727069e-01)
                         4.051451e+01 molec./uc (3.485923e+01 +/- 1.727069e-01)
                         6.101477e+00 mol/kg    (5.249793e+00 +/- 2.600963e-02)
                         2.684577e+02 mg/g      (2.309846e+02 +/- 1.144392e+00)

Total potential energy/kʙ  -1.117715e+05 (-9.434459e+04 +/- 9.064289e+02) [K]
-------------------------------------------------------------------------------
ExternalField-molecule
    Van der Waals/kʙ        0.000000e+00 ( 0.000000e+00 +/- 0.000000e+00) [K]
Framework-molecule
    Van der Waals/kʙ       -9.262712e+04 (-8.001304e+04 +/- 8.367190e+02) [K]
    Van der Waals (Tail)/kʙ 0.000000e+00 ( 0.000000e+00 +/- 0.000000e+00) [K]
    Coulombic Real/kʙ       0.000000e+00 ( 0.000000e+00 +/- 0.000000e+00) [K]
    Coulombic Fourier/kʙ    0.000000e+00 ( 0.000000e+00 +/- 0.000000e+00) [K]
Molecule-molecule
    Van der Waals/kʙ       -1.579512e+04 (-1.210900e+04 +/- 9.525535e+01) [K]
    Van der Waals (Tail)/kʙ 0.000000e+00 ( 0.000000e+00 +/- 0.000000e+00) [K]
    Coulombic Real/kʙ      -2.884656e+03 (-2.143591e+03 +/- 3.367709e+01) [K]
    Coulombic Fourier/kʙ   -4.645846e+02 (-7.895194e+01 +/- 1.885800e+01) [K]
    Molecule Intra/kʙ       0.000000e+00 ( 0.000000e+00 +/- 0.000000e+00) [K]
Polarization energy/kʙ      0.000000e+00 ( 0.000000e+00 +/- 0.000000e+00) [K]

Current cycle: 60000 out of 100000
===============================================================================

Box:      20.81000   0.00000   0.00000  Average:  20.81000   0.00000   0.00000
           0.00000  20.81000   0.00000             0.00000  20.81000   0.00000
           0.00000   0.00000  20.81000             0.00000   0.00000  20.81000
Lengths:  20.81000  20.81000  20.81000  Average:  20.81000  20.81000  20.81000
Angles:   90.00000  90.00000  90.00000  Average:  90.00000  90.00000  90.00000
Rectangular boundary conditions

Net charge:   0.00000000
Cutoff Coulomb:  10.40500 [Å]
Ewald alpha: 0.3077428496806629
Ewald k-vectors: 7 7 7


component 0 (CO2) lambda:  0 occupancy:  1 (1.000000)
    net charge:   0.00000000 [e]

Amount of molecules per component:
-------------------------------------------------------------------------------
Component 0 (CO2)
    absolute adsorption: 3.700000e+01 molecules (3.633529e+01 +/- 1.821266e-01)
                         3.700000e+01 molec./uc (3.633529e+01 +/- 1.821266e-01)
                         5.572192e+00 mol/kg    (5.472087e+00 +/- 2.742822e-02)
                         2.451698e+02 mg/g      (2.407653e+02 +/- 1.206809e+00)
    excess adsorption:   3.551451e+01 molecules (3.484981e+01 +/- 1.821266e-01)
                         3.551451e+01 molec./uc (3.484981e+01 +/- 1.821266e-01)
                         5.348478e+00 mol/kg    (5.248373e+00 +/- 2.742822e-02)
                         2.353266e+02 mg/g      (2.309221e+02 +/- 1.206809e+00)

Total potential energy/kʙ  -9.634053e+04 (-9.432541e+04 +/- 8.978901e+02) [K]
-------------------------------------------------------------------------------
ExternalField-molecule
    Van der Waals/kʙ        0.000000e+00 ( 0.000000e+00 +/- 0.000000e+00) [K]
Framework-molecule
    Van der Waals/kʙ       -8.260821e+04 (-8.001267e+04 +/- 7.705528e+02) [K]
    Van der Waals (Tail)/kʙ 0.000000e+00 ( 0.000000e+00 +/- 0.000000e+00) [K]
    Coulombic Real/kʙ       0.000000e+00 ( 0.000000e+00 +/- 0.000000e+00) [K]
    Coulombic Fourier/kʙ    0.000000e+00 ( 0.000000e+00 +/- 0.000000e+00) [K]
Molecule-molecule
    Van der Waals/kʙ       -1.243459e+04 (-1.211107e+04 +/- 9.559732e+01) [K]
    Van der Waals (Tail)/kʙ 0.000000e+00 ( 0.000000e+00 +/- 0.000000e+00) [K]
    Coulombic Real/kʙ      -1.353567e+03 (-2.125629e+03 +/- 9.521243e+01) [K]
    Coulombic Fourier/kʙ    5.583298e+01 (-7.604155e+01 +/- 8.867784e+00) [K]
    Molecule Intra/kʙ       0.000000e+00 ( 0.000000e+00 +/- 0.000000e+00) [K]
Polarization energy/kʙ      0.000000e+00 ( 0.000000e+00 +/- 0.000000e+00) [K]

Current cycle: 65000 out of 100000
===============================================================================

Box:      20.81000   0.00000   0.00000  Average:  20.81000   0.00000   0.00000
           0.00000  20.81000   0.00000             0.00000  20.81000   0.00000
           0.00000   0.00000  20.81000             0.00000   0.00000  20.81000
Lengths:  20.81000  20.81000  20.81000  Average:  20.81000  20.81000  20.81000
Angles:   90.00000  90.00000  90.00000  Average:  90.00000  90.00000  90.00000
Rectangular boundary conditions

Net charge:   0.00000000
Cutoff Coulomb:  10.40500 [Å]
Ewald alpha: 0.3077428496806629
Ewald k-vectors: 7 7 7


component 0 (CO2) lambda:  0 occupancy:  1 (1.000000)
    net charge:   0.00000000 [e]

Amount of molecules per component:
-------------------------------------------------------------------------------
Component 0 (CO2)
    absolute adsorption: 4.000000e+01 molecules (3.635398e+01 +/- 1.908037e-01)
                         4.000000e+01 molec./uc (3.635398e+01 +/- 1.908037e-01)
                         6.023991e+00 mol/kg    (5.474901e+00 +/- 2.873499e-02)
                         2.650484e+02 mg/g      (2.408891e+02 +/- 1.264305e+00)
    excess adsorption:   3.851451e+01 molecules (3.486849e+01 +/- 1.908037e-01)
                         3.851451e+01 molec./uc (3.486849e+01 +/- 1.908037e-01)
                         5.800277e+00 mol/kg    (5.251187e+00 +/- 2.873499e-02)
                         2.552052e+02 mg/g      (2.310459e+02 +/- 1.264305e+00)

Total potential energy/kʙ  -1.051983e+05 (-9.441072e+04 +/- 9.349404e+02) [K]
-------------------------------------------------------------------------------
ExternalField-molecule
    Van der Waals/kʙ        0.000000e+00 ( 0.000000e+00 +/- 0.000000e+00) [K]
Framework-molecule
    Van der Waals/kʙ       -8.841233e+04 (-8.006928e+04 +/- 7.898576e+02) [K]
    Van der Waals (Tail)/kʙ 0.000000e+00 ( 0.000000e+00 +/- 0.000000e+00) [K]
    Coulombic Real/kʙ       0.000000e+00 ( 0.000000e+00 +/- 0.000000e+00) [K]
    Coulombic Fourier/kʙ    0.000000e+00 ( 0.000000e+00 +/- 0.000000e+00) [K]
Molecule-molecule
    Van der Waals/kʙ       -1.393843e+04 (-1.212522e+04 +/- 1.049075e+02) [K]
    Van der Waals (Tail)/kʙ 0.000000e+00 ( 0.000000e+00 +/- 0.000000e+00) [K]
    Coulombic Real/kʙ      -2.575325e+03 (-2.138145e+03 +/- 1.024001e+02) [K]
    Coulombic Fourier/kʙ   -2.722356e+02 (-7.807822e+01 +/- 1.078011e+01) [K]
    Molecule Intra/kʙ       0.000000e+00 ( 0.000000e+00 +/- 0.000000e+00) [K]
Polarization energy/kʙ      0.000000e+00 ( 0.000000e+00 +/- 0.000000e+00) [K]

Current cycle: 70000 out of 100000
===============================================================================

Box:      20.81000   0.00000   0.00000  Average:  20.81000   0.00000   0.00000
           0.00000  20.81000   0.00000             0.00000  20.81000   0.00000
           0.00000   0.00000  20.81000             0.00000   0.00000  20.81000
Lengths:  20.81000  20.81000  20.81000  Average:  20.81000  20.81000  20.81000
Angles:   90.00000  90.00000  90.00000  Average:  90.00000  90.00000  90.00000
Rectangular boundary conditions

Net charge:   0.00000000
Cutoff Coulomb:  10.40500 [Å]
Ewald alpha: 0.3077428496806629
Ewald k-vectors: 7 7 7


component 0 (CO2) lambda:  0 occupancy:  1 (1.000000)
    net charge:   0.00000000 [e]

Amount of molecules per component:
-------------------------------------------------------------------------------
Component 0 (CO2)
    absolute adsorption: 3.600000e+01 molecules (3.634921e+01 +/- 1.242972e-01)
                         3.600000e+01 molec./uc (3.634921e+01 +/- 1.242972e-01)
                         5.421592e+00 mol/kg    (5.474183e+00 +/- 1.871914e-02)
                         2.385435e+02 mg/g      (2.408575e+02 +/- 8.236195e-01)
    excess adsorption:   3.451451e+01 molecules (3.486372e+01 +/- 1.242972e-01)
                         3.451451e+01 molec./uc (3.486372e+01 +/- 1.242972e-01)
                         5.197878e+00 mol/kg    (5.250469e+00 +/- 1.871914e-02)
                         2.287004e+02 mg/g      (2.310143e+02 +/- 8.236195e-01)

Total potential energy/kʙ  -9.400559e+04 (-9.437829e+04 +/- 5.598499e+02) [K]
-------------------------------------------------------------------------------
ExternalField-molecule
    Van der Waals/kʙ        0.000000e+00 ( 0.000000e+00 +/- 0.000000e+00) [K]
Framework-molecule
    Van der Waals/kʙ       -8.064789e+04 (-8.004348e+04 +/- 4.409154e+02) [K]
    Van der Waals (Tail)/kʙ 0.000000e+00 ( 0.000000e+00 +/- 0.000000e+00) [K]
    Coulombic Real/kʙ       0.000000e+00 ( 0.000000e+00 +/- 0.000000e+00) [K]
    Coulombic Fourier/kʙ    0.000000e+00 ( 0.000000e+00 +/- 0.000000e+00) [K]
Molecule-molecule
    Van der Waals/kʙ       -9.824685e+03 (-1.212065e+04 +/- 7.448833e+01) [K]
    Van der Waals (Tail)/kʙ 0.000000e+00 ( 0.000000e+00 +/- 0.000000e+00) [K]
    Coulombic Real/kʙ      -3.274348e+03 (-2.133124e+03 +/- 6.527781e+01) [K]
    Coulombic Fourier/kʙ   -2.586663e+02 (-8.102754e+01 +/- 2.882479e+01) [K]
    Molecule Intra/kʙ       0.000000e+00 ( 0.000000e+00 +/- 0.000000e+00) [K]
Polarization energy/kʙ      0.000000e+00 ( 0.000000e+00 +/- 0.000000e+00) [K]

Current cycle: 75000 out of 100000
===============================================================================

Box:      20.81000   0.00000   0.00000  Average:  20.81000   0.00000   0.00000
           0.00000  20.81000   0.00000             0.00000  20.81000   0.00000
           0.00000   0.00000  20.81000             0.00000   0.00000  20.81000
Lengths:  20.81000  20.81000  20.81000  Average:  20.81000  20.81000  20.81000
Angles:   90.00000  90.00000  90.00000  Average:  90.00000  90.00000  90.00000
Rectangular boundary conditions

Net charge:   0.00000000
Cutoff Coulomb:  10.40500 [Å]
Ewald alpha: 0.3077428496806629
Ewald k-vectors: 7 7 7


component 0 (CO2) lambda:  0 occupancy:  1 (1.000000)
    net charge:   0.00000000 [e]

Amount of molecules per component:
-------------------------------------------------------------------------------
Component 0 (CO2)
    absolute adsorption: 4.500000e+01 molecules (3.637073e+01 +/- 1.709040e-01)
                         4.500000e+01 molec./uc (3.637073e+01 +/- 1.709040e-01)
                         6.776990e+00 mol/kg    (5.477424e+00 +/- 2.573811e-02)
                         2.981794e+02 mg/g      (2.410001e+02 +/- 1.132446e+00)
    excess adsorption:   4.351451e+01 molecules (3.488524e+01 +/- 1.709040e-01)
                         4.351451e+01 molec./uc (3.488524e+01 +/- 1.709040e-01)
                         6.553276e+00 mol/kg    (5.253710e+00 +/- 2.573811e-02)
                         2.883363e+02 mg/g      (2.311569e+02 +/- 1.132446e+00)

Total potential energy/kʙ  -1.169775e+05 (-9.444290e+04 +/- 6.653787e+02) [K]
-------------------------------------------------------------------------------
ExternalField-molecule
    Van der Waals/kʙ        0.000000e+00 ( 0.000000e+00 +/- 0.000000e+00) [K]
Framework-molecule
    Van der Waals/kʙ       -9.710983e+04 (-8.010589e+04 +/- 5.502599e+02) [K]
    Van der Waals (Tail)/kʙ 0.000000e+00 ( 0.000000e+00 +/- 0.000000e+00) [K]
    Coulombic Real/kʙ       0.000000e+00 ( 0.000000e+00 +/- 0.000000e+00) [K]
    Coulombic Fourier/kʙ    0.000000e+00 ( 0.000000e+00 +/- 0.000000e+00) [K]
Molecule-molecule
    Van der Waals/kʙ       -1.841442e+04 (-1.212346e+04 +/- 7.055430e+01) [K]
    Van der Waals (Tail)/kʙ 0.000000e+00 ( 0.000000e+00 +/- 0.000000e+00) [K]
    Coulombic Real/kʙ      -9.935775e+02 (-2.132707e+03 +/- 5.702569e+01) [K]
    Coulombic Fourier/kʙ   -4.596547e+02 (-8.084296e+01 +/- 1.967977e+01) [K]
    Molecule Intra/kʙ       0.000000e+00 ( 0.000000e+00 +/- 0.000000e+00) [K]
Polarization energy/kʙ      0.000000e+00 ( 0.000000e+00 +/- 0.000000e+00) [K]

Current cycle: 80000 out of 100000
===============================================================================

Box:      20.81000   0.00000   0.00000  Average:  20.81000   0.00000   0.00000
           0.00000  20.81000   0.00000             0.00000  20.81000   0.00000
           0.00000   0.00000  20.81000             0.00000   0.00000  20.81000
Lengths:  20.81000  20.81000  20.81000  Average:  20.81000  20.81000  20.81000
Angles:   90.00000  90.00000  90.00000  Average:  90.00000  90.00000  90.00000
Rectangular boundary conditions

Net charge:   0.00000000
Cutoff Coulomb:  10.40500 [Å]
Ewald alpha: 0.3077428496806629
Ewald k-vectors: 7 7 7


component 0 (CO2) lambda:  0 occupancy:  1 (1.000000)
    net charge:   0.00000000 [e]

Amount of molecules per component:
[...]


Energy statistics             |  Energy [K]   | Recomputed [K]|  Drift [K]    |
===============================================================================
Total potential energy/kʙ     | -9.166315e+04 | -9.166315e+04 |  6.076182e-09 |
    external field VDW/kʙ     |  0.000000e+00 |  0.000000e+00 |  0.000000e+00 |
    external field Real/kʙ    |  0.000000e+00 |  0.000000e+00 |  0.000000e+00 |
    framework-molecule VDW/kʙ | -7.911513e+04 | -7.911513e+04 |  7.910878e-09 |
    framework-molecule Real/kʙ|  0.000000e+00 |  0.000000e+00 |  0.000000e+00 |
    molecule-molecule VDW/kʙ  | -1.123397e+04 | -1.123397e+04 | -1.739255e-09 |
    molecule-molecule Real/kʙ | -1.256986e+03 | -1.256986e+03 | -4.334465e-10 |
    Van der Waals (Tail)/kʙ   |  0.000000e+00 |  0.000000e+00 |  0.000000e+00 |
    Ewald Fourier/kʙ          |  3.637061e+03 |  3.637061e+03 |  1.979907e-10 |
    Ewald self/kʙ             | -6.828323e+05 | -6.828323e+05 |  1.400155e-10 |
    Ewald exclusion/kʙ        |  6.791382e+05 |  6.791382e+05 |  0.000000e+00 |
    bond/kʙ                   |  0.000000e+00 |  0.000000e+00 |  0.000000e+00 |
    Urey-Bradley/kʙ           |  0.000000e+00 |  0.000000e+00 |  0.000000e+00 |
    bend/kʙ                   |  0.000000e+00 |  0.000000e+00 |  0.000000e+00 |
    inversion bend/kʙ         |  0.000000e+00 |  0.000000e+00 |  0.000000e+00 |
    out-of-plane bend/kʙ      |  0.000000e+00 |  0.000000e+00 |  0.000000e+00 |
    torsion/kʙ                |  0.000000e+00 |  0.000000e+00 |  0.000000e+00 |
    improper torsion/kʙ       |  0.000000e+00 |  0.000000e+00 |  0.000000e+00 |
    bond-bond/kʙ              |  0.000000e+00 |  0.000000e+00 |  0.000000e+00 |
    bond-bend/kʙ              |  0.000000e+00 |  0.000000e+00 |  0.000000e+00 |
    bond-torsion/kʙ           |  0.000000e+00 |  0.000000e+00 |  0.000000e+00 |
    bend-bend/kʙ              |  0.000000e+00 |  0.000000e+00 |  0.000000e+00 |
    bend-torsion/kʙ           |  0.000000e+00 |  0.000000e+00 |  0.000000e+00 |
    intra VDW/kʙ              |  0.000000e+00 |  0.000000e+00 |  0.000000e+00 |
    intra Coulombic/kʙ        |  0.000000e+00 |  0.000000e+00 |  0.000000e+00 |
    polarization/kʙ           |  0.000000e+00 |  0.000000e+00 |  0.000000e+00 |
    dU/dlambda VDW/kʙ         |  0.000000e+00 |  0.000000e+00 |  0.000000e+00 |
    dU/dlambda Real/kʙ        |  0.000000e+00 |  0.000000e+00 |  0.000000e+00 |
    dU/dlambda Ewald/kʙ       |  0.000000e+00 |  0.000000e+00 |  0.000000e+00 |
-------------------------------------------------------------------------------


Monte-Carlo moves statistics
===============================================================================

Component 0 [CO2]
    Reinsertion (CBMC)   all:              520570
    Reinsertion (CBMC)   total:            520570
    Reinsertion (CBMC)   constructed:      475889
    Reinsertion (CBMC)   accepted:          24420
    Reinsertion (CBMC)   fraction:       0.046910
    Reinsertion (CBMC)   max-change:     0.000000

    Widom                all:             1038593
    Widom                total:           1038593
    Widom                constructed:      942709
    Widom                accepted:              0
    Widom                fraction:       0.000000
    Widom                max-change:     0.000000

    Translation          all:              519857
    Translation          total:            173252     173269     173336
    Translation          constructed:      173252     173269     173336
    Translation          accepted:          87582      85487      86119
    Translation          fraction:       0.505518   0.493377   0.496833
    Translation          max-change:     0.863138   0.858796   0.835858

    Rotation             all:              517927
    Rotation             total:            173048     171998     172881
    Rotation             constructed:      173048     171998     172881
    Rotation             accepted:          89786      89317      86359
    Rotation             fraction:       0.518850   0.519291   0.499529
    Rotation             max-change:     0.944961   0.944480   0.956388

    Swap (CBMC)          all:             1039868
    Swap (CBMC)          total:            519632     520236          0
    Swap (CBMC)          constructed:      472018     520236          0
    Swap (CBMC)          accepted:          69814      69816          0
    Swap (CBMC)          fraction:       0.134353   0.134201   0.000000
    Swap (CBMC)          max-change:     0.000000   0.000000   0.000000

    Widom insertion Rosenbluth weight statistics:
    ---------------------------------------------------------------------------
        Block[  0]  1.687189e+01
        Block[  1]  1.658501e+01
        Block[  2]  1.764334e+01
        Block[  3]  1.642316e+01
        Block[  4]  1.630102e+01
    ---------------------------------------------------------------------------
    Average Rosenbluth weight:    1.676383e+01 +/-  6.649193e-01 [-]


    Henry coefficient based on Rosenbluth weight:
    ---------------------------------------------------------------------------
        Block[  0]  5.565506e-06
        Block[  1]  5.470874e-06
        Block[  2]  5.819984e-06
        Block[  3]  5.417485e-06
        Block[  4]  5.377196e-06
    ---------------------------------------------------------------------------
    Average Henry coefficient:    5.529861e-06 +/-  2.193360e-07 [mol/kg/Pa]
    Average Henry coefficient:    3.671892e-05 +/-  1.456416e-06 [molec./uc/Pa]


    Widom insertion chemical potential  statistics:
    ---------------------------------------------------------------------------
        Block[  0] -842.044068333032
        Block[  1] -836.9334797735379
        Block[  2] -855.3675457375449
        Block[  3] -834.0110915063156
        Block[  4] -831.7866571761408
    ---------------------------------------------------------------------------
    Excess chemical potential:          -8.401294e+02 +/-  1.166442e+01 [K]
    Ideal chemical potential:           -1.642759e+03 +/-  1.044808e+00 [K]
    Total chemical potential:           -2.482888e+03 +/-  1.217655e+01 [K]
    Imposed chemical potential:         -2.480028e+03 [K]
    ---------------------------------------------------------------------------
    Excess chemical potential:          -6.985226e+00 +/-  9.698341e-02 [kJ/mol]
    Ideal chemical potential:           -1.365866e+01 +/-  8.687019e-03 [kJ/mol]
    Total chemical potential:           -2.064389e+01 +/-  1.012415e-01 [kJ/mol]
    Imposed chemical potential:         -2.062010e+01 [kJ/mol]
    ---------------------------------------------------------------------------
    Imposed fugacity:                    1.000000e+06 [Pa]
    Measured fugacity:                   9.904475e+05 +/-  3.996278e+04 [Pa]




Production run counting of the MC moves summed over systems and components
===============================================================================

Reinsertion (CBMC)                   520570 (14.3139 [%])
Widom                               1038593 (28.5578 [%])
Translation                          519857 (14.2943 [%])
Rotation                             517927 (14.2412 [%])
Swap (CBMC)                         1039868 (28.5928 [%])

Production count MC-steps:          3636815 [-]
               All summed:          3636815 [-]
               difference:                0 [-]


Production run CPU timings of the MC moves
===============================================================================

Component 0 CO2

Widom                               238.527827 [s]
    Ewald                             7.221862 [s]
    NonEwald                        229.802295 [s]
    Tail                              1.258687 [s]
    Overhead                          0.244983 [s]

Swap (CBMC)                         250.497592 [s]
    Deletion-Total                  130.906180 [s]
    Ewald                             7.705417 [s]
    Insertion-Total                 119.532323 [s]
    NonEwald                        240.702108 [s]
    Tail                              1.343686 [s]
    Overhead                          0.746381 [s]

Rotation                             33.849191 [s]
    Ewald                             4.749038 [s]
    ExternalField-Molecule            0.011444 [s]
    Framework-Molecule               24.171150 [s]
    Molecule-Molecule                 4.367416 [s]
    Overhead                          0.550143 [s]

Reinsertion (CBMC)                  205.305697 [s]
    Ewald                             4.406492 [s]
    NonEwald                        200.690633 [s]
    Overhead                          0.208572 [s]

Translation                          34.025375 [s]
    Ewald                             4.766195 [s]
    ExternalField-Molecule            0.011929 [s]
    Framework-Molecule               24.261774 [s]
    Molecule-Molecule                 4.427805 [s]
    Overhead                          0.557672 [s]



Property sampling                     1.155185 [s]
Energy/pressure sampling:            14.077686 [s]


Production run CPU timings of the MC moves summed over systems and components
===============================================================================


Translation                          34.025375 [s]
    Ewald                             4.766195 [s]
    ExternalField-Molecule            0.011929 [s]
    Framework-Molecule               24.261774 [s]
    Molecule-Molecule                 4.427805 [s]
    Overhead                          0.557672 [s]

Rotation                             33.849191 [s]
    Ewald                             4.749038 [s]
    ExternalField-Molecule            0.011444 [s]
    Framework-Molecule               24.171150 [s]
    Molecule-Molecule                 4.367416 [s]
    Overhead                          0.550143 [s]

Reinsertion (CBMC)                  205.305697 [s]
    Ewald                             4.406492 [s]
    NonEwald                        200.690633 [s]
    Overhead                          0.208572 [s]

Swap (CBMC)                         250.497592 [s]
    Deletion-Total                  130.906180 [s]
    Ewald                             7.705417 [s]
    Insertion-Total                 119.532323 [s]
    NonEwald                        240.702108 [s]
    Tail                              1.343686 [s]
    Overhead                          0.746381 [s]

Widom                               238.527827 [s]
    Ewald                             7.221862 [s]
    NonEwald                        229.802295 [s]
    Tail                              1.258687 [s]
    Overhead                          0.244983 [s]

Property sampling:                    1.155185 [s]
Energy/pressure sampling:            14.077686 [s]

Production simulation time:         778.317481 [s]
                All summed:         777.438553 [s]
                  Overhead:           0.878928 [s]


Initalization simulation time:      260.548553 [s]
Equilibration simulation time:        0.000000 [s]
Production simulation time:         778.317481 [s]
Total simulation time:             1038.866034 [s]


Energy averages and statistics:
===============================================================================

Framework-molecule energy:
-------------------------------------------------------------------------------

    Framework-molecule energy/kʙ 0-0 [CO2]:
    ---------------------------------------------------------------------------
        Block[  0] -7.987235e+04
        Block[  1] -8.036771e+04
        Block[  2] -7.979666e+04
        Block[  3] -8.046873e+04
        Block[  4] -7.983718e+04
        -----------------------------------------------------------------------
        Average  -8.006852e+04 +/-  4.001630e+02 [K]



Framework-molecule energy contributions per energy type:
-------------------------------------------------------------------------------

    Van der Waals energy/kʙ 0-0 [CO2]:
    ---------------------------------------------------------------------------
        Block[  0] -7.987235e+04
        Block[  1] -8.036771e+04
        Block[  2] -7.979666e+04
        Block[  3] -8.046873e+04
        Block[  4] -7.983718e+04
        -----------------------------------------------------------------------
        Average  -8.006852e+04 +/-  4.001630e+02 [K]

    VDW Tail-Correction energy/kʙ 0-0 [CO2]:
    ---------------------------------------------------------------------------
        Block[  0]  0.000000e+00
        Block[  1]  0.000000e+00
        Block[  2]  0.000000e+00
        Block[  3]  0.000000e+00
        Block[  4]  0.000000e+00
        -----------------------------------------------------------------------
        Average   0.000000e+00 +/-  0.000000e+00 [K]

    Coulomb Real energy/kʙ 0-0 [CO2]:
    ---------------------------------------------------------------------------
        Block[  0]  0.000000e+00
        Block[  1]  0.000000e+00
        Block[  2]  0.000000e+00
        Block[  3]  0.000000e+00
        Block[  4]  0.000000e+00
        -----------------------------------------------------------------------
        Average   0.000000e+00 +/-  0.000000e+00 [K]

    Coulomb Fourier energy/kʙ 0-0 [CO2]:
    ---------------------------------------------------------------------------
        Block[  0]  0.000000e+00
        Block[  1]  0.000000e+00
        Block[  2]  0.000000e+00
        Block[  3]  0.000000e+00
        Block[  4]  0.000000e+00
        -----------------------------------------------------------------------
        Average   0.000000e+00 +/-  0.000000e+00 [K]



Inter-molecular energy:
-------------------------------------------------------------------------------

    Inter-molecular energy/kʙ 0-0 [CO2-CO2]:
    ---------------------------------------------------------------------------
        Block[  0] -1.427411e+04
        Block[  1] -1.437332e+04
        Block[  2] -1.429108e+04
        Block[  3] -1.450107e+04
        Block[  4] -1.444715e+04
        -----------------------------------------------------------------------
        Average  -1.437735e+04 +/-  1.214737e+02 [K]



Inter-molecular energy contributions per energy type:
-------------------------------------------------------------------------------

    Van der Waals energy/kʙ 0-0 [CO2-CO2]:
    ---------------------------------------------------------------------------
        Block[  0] -1.206666e+04
        Block[  1] -1.213548e+04
        Block[  2] -1.213090e+04
        Block[  3] -1.222341e+04
        Block[  4] -1.212934e+04
        -----------------------------------------------------------------------
        Average  -1.213716e+04 +/-  6.943496e+01 [K]

    VDW Tail-Correction energy/kʙ 0-0 [CO2-CO2]:
    ---------------------------------------------------------------------------
        Block[  0]  0.000000e+00
        Block[  1]  0.000000e+00
        Block[  2]  0.000000e+00
        Block[  3]  0.000000e+00
        Block[  4]  0.000000e+00
        -----------------------------------------------------------------------
        Average   0.000000e+00 +/-  0.000000e+00 [K]

    Coulomb Real energy/kʙ 0-0 [CO2-CO2]:
    ---------------------------------------------------------------------------
        Block[  0] -2.135182e+03
        Block[  1] -2.158491e+03
        Block[  2] -2.083600e+03
        Block[  3] -2.176064e+03
        Block[  4] -2.209324e+03
        -----------------------------------------------------------------------
        Average  -2.152532e+03 +/-  5.845196e+01 [K]

    Coulomb Fourier energy/kʙ 0-0 [CO2-CO2]:
    ---------------------------------------------------------------------------
        Block[  0] -7.226349e+01
        Block[  1] -7.934565e+01
        Block[  2] -7.658147e+01
        Block[  3] -1.015966e+02
        Block[  4] -1.084830e+02
        -----------------------------------------------------------------------
        Average  -8.765403e+01 +/-  2.017847e+01 [K]

Intra-molecular energies per energy type:
-------------------------------------------------------------------------------


Kinetic Energies:
-------------------------------------------------------------------------------

    Translational Kinetic energy/kʙ
    ---------------------------------------------------------------------------
        Block[  0]  0.000000e+00
        Block[  1]  0.000000e+00
        Block[  2]  0.000000e+00
        Block[  3]  0.000000e+00
        Block[  4]  0.000000e+00
        -----------------------------------------------------------------------
        Average   0.000000e+00 +/-  0.000000e+00 [K]

    Rotational Kinetic energy/kʙ
    ---------------------------------------------------------------------------
        Block[  0]  0.000000e+00
        Block[  1]  0.000000e+00
        Block[  2]  0.000000e+00
        Block[  3]  0.000000e+00
        Block[  4]  0.000000e+00
        -----------------------------------------------------------------------
        Average   0.000000e+00 +/-  0.000000e+00 [K]

    Nose Hoover energy/kʙ
    ---------------------------------------------------------------------------
        Block[  0]  0.000000e+00
        Block[  1]  0.000000e+00
        Block[  2]  0.000000e+00
        Block[  3]  0.000000e+00
        Block[  4]  0.000000e+00
        -----------------------------------------------------------------------
        Average   0.000000e+00 +/-  0.000000e+00 [K]

Polarization energy/kʙ
-------------------------------------------------------------------------------
    Block[  0]  0.000000e+00
    Block[  1]  0.000000e+00
    Block[  2]  0.000000e+00
    Block[  3]  0.000000e+00
    Block[  4]  0.000000e+00
    ---------------------------------------------------------------------------
    Average   0.000000e+00 +/-  0.000000e+00 [K]

Total energy/kʙ
-------------------------------------------------------------------------------
    Block[  0] -9.414645e+04
    Block[  1] -9.474103e+04
    Block[  2] -9.408774e+04
    Block[  3] -9.496980e+04
    Block[  4] -9.428433e+04
    ---------------------------------------------------------------------------
    Average  -9.444587e+04 +/-  4.830643e+02 [K]

Enthalpy of adsorption
===============================================================================

Component 0 [CO2]
-------------------------------------------------------------------------------
    Block[  0] -3.094031e+03
    Block[  1] -3.125075e+03
    Block[  2] -3.108047e+03
    Block[  3] -3.128809e+03
    Block[  4] -3.138478e+03
    ---------------------------------------------------------------------------
    Enthalpy of adsorption: -3.118888e+03 +/-  2.199769e+01 [K]
                            -2.593188e+01 +/-  1.828990e-01 [kJ/mol]
    Note: need to subtract the ideal-gas energy.


Loadings
===============================================================================

Component 0 (CO2)
    Block[  0]  3.628205e+01
    Block[  1]  3.641890e+01
    Block[  2]  3.630490e+01
    Block[  3]  3.652565e+01
    Block[  4]  3.630915e+01
    ---------------------------------------------------------------------------
    Abs. loading average   3.636813e+01 +/-  1.276305e-01 [molecules/cell]
    Abs. loading average   3.636813e+01 +/-  1.276305e-01 [molecules/uc]
    Abs. loading average   5.477032e+00 +/-  1.922112e-02 [mol/kg-framework]
    Abs. loading average   2.409829e+02 +/-  8.457063e-01 [mg/g-framework]

    Block[  0]  3.479656e+01
    Block[  1]  3.493341e+01
    Block[  2]  3.481941e+01
    Block[  3]  3.504016e+01
    Block[  4]  3.482366e+01
    ---------------------------------------------------------------------------
    Excess loading average   3.488264e+01 +/-  1.276305e-01 [molecules/cell]
    Excess loading average   3.488264e+01 +/-  1.276305e-01 [molecules/uc]
    Excess loading average   5.253318e+00 +/-  1.922112e-02 [mol/kg-framework]
    Excess loading average   2.311397e+02 +/-  8.457063e-01 [mg/g-framework]



